# vtk DataFile Version 3.0
VTK - Matlab export
ASCII
DATASET STRUCTURED_POINTS
DIMENSIONS 40 40 1
SPACING 1 1 1
ORIGIN 0 0 0
POINT_DATA 1600
SCALARS Temperature float 1
LOOKUP_TABLE default
200.00000000 200.00000000 200.00000000 200.00000000 200.00000000 200.00000000 200.00000000 200.00000000 200.00000000 200.00000000 200.00000000 200.00000000 200.00000000 200.00000000 200.00000000 200.00000000 200.00000000 200.00000000 200.00000000 200.00000000 200.00000000 200.00000000 200.00000000 200.00000000 200.00000000 200.00000000 200.00000000 200.00000000 200.00000000 200.00000000 200.00000000 200.00000000 200.00000000 200.00000000 200.00000000 200.00000000 200.00000000 200.00000000 200.00000000 200.00000000 200.00000000 200.00000000 200.00000000 200.00000000 200.00000000 200.00000000 200.00000000 200.00000000 200.00000000 200.00000000 200.00000000 200.00000000 200.00000000 200.00000000 200.00000000 200.00000000 200.00000000 200.00000000 200.00000000 200.00000000 200.00000000 200.00000000 200.00000000 200.00000000 200.00000000 200.00000000 200.00000000 200.00000000 200.00000000 200.00000000 200.00000000 200.00000000 200.00000000 200.00000000 200.00000000 200.00000000 200.00000000 200.00000000 200.00000000 200.00000000 200.00000000 200.00000000 200.00000000 200.00000000 200.00000000 200.00000000 200.00000000 200.00000000 200.00000000 200.00000000 200.00000000 200.00000000 200.00000000 200.00000000 200.00000000 200.00000000 200.00000000 200.00000000 200.00000000 200.00000000 200.00000000 200.00000000 200.00000000 200.00000000 200.00000000 200.00000000 200.00000000 200.00000000 200.00000000 200.00000000 200.00000000 200.00000000 200.00000000 200.00000000 200.00000000 200.00000000 200.00000000 200.00000000 200.00000000 200.00000000 200.00000000 200.00000000 200.00000000 200.00000000 200.00000000 200.00000000 200.00000000 200.00000000 200.00000000 200.00000000 200.00000000 200.00000000 200.00000000 200.00000000 200.00000000 200.00000000 200.00000000 200.00000000 200.00000000 200.00000000 200.00000000 200.00000000 200.00000000 200.00000000 200.00000000 200.00000000 200.00000000 200.00000000 200.00000000 200.00000000 200.00000000 200.00000000 200.00000000 200.00000000 200.00000000 200.00000000 200.00000000 200.00000000 200.00000000 200.00000000 200.00000000 200.00000000 200.00000000 200.00000000 200.00000000 200.00000000 200.00000000 200.00000000 200.00000000 200.00000000 200.00000000 200.00000000 200.00000000 200.00000000 200.00000000 200.00000000 200.00000000 200.00000000 200.00000000 200.00000000 200.00000000 200.00000000 200.00000000 200.00000000 200.00000000 200.00000000 200.00000000 200.00000000 200.00000000 200.00000000 200.00000000 200.00000000 200.00000000 200.00000000 200.00000000 200.00000000 200.00000000 200.00000000 200.00000000 200.00000000 200.00000000 200.00000000 200.00000000 200.00000000 200.00000000 200.00000000 200.00000000 200.00000000 200.00000000 200.00000000 200.00000000 200.00000000 200.00000000 200.00000000 200.00000000 200.00000000 200.00000000 200.00000000 200.00000000 200.00000000 200.00000000 200.00000000 200.00000000 200.00000000 200.00000000 200.00000000 200.00000000 200.00000000 200.00000000 200.00000000 200.00000000 200.00000000 200.00000000 200.00000000 200.00000000 200.00000000 200.00000000 200.00000000 200.00000000 200.00000000 200.00000000 200.00000000 200.00000000 200.00000000 200.00000000 200.00000000 200.00000000 200.00000000 200.00000000 200.00000000 200.00000000 200.00000000 200.00000000 200.00000000 200.00000000 200.00000000 200.00000000 200.00000000 200.00000000 200.00000000 200.00000000 200.00000000 200.00000000 200.00000000 200.00000000 200.00000000 200.00000000 200.00000000 200.00000000 200.00000000 200.00000000 200.00000000 200.00000000 200.00000000 200.00000000 200.00000000 200.00000000 200.00000000 200.00000000 200.00000000 200.00000000 200.00000000 200.00000000 200.00000000 200.00000000 200.00000000 200.00000000 200.00000000 200.00000000 200.00000000 200.00000000 200.00000000 200.00000000 200.00000000 200.00000000 200.00000000 200.00000000 200.00000000 200.00000000 200.00000000 200.00000000 200.00000000 200.00000000 200.00000000 200.00000000 200.00000000 200.00000000 200.00000000 200.00000000 200.00000000 200.00000000 200.00000000 200.00000000 200.00000000 200.00000000 200.00000000 200.00000000 200.00000000 200.00000000 200.00000000 200.00000000 200.00000000 200.00000000 200.00000000 200.00000000 200.00000000 200.00000000 200.00000000 200.00000000 200.00000000 200.00000000 200.00000000 200.00000000 200.00000000 200.00000000 200.00000000 200.00000000 230.28871558 246.66690111 252.68351289 252.68351289 246.66690111 230.28871558 200.00000000 200.00000000 200.00000000 200.00000000 200.00000000 200.00000000 200.00000000 200.00000000 200.00000000 200.00000000 200.00000000 200.00000000 200.00000000 200.00000000 200.00000000 200.00000000 200.00000000 200.00000000 200.00000000 200.00000000 200.00000000 200.00000000 200.00000000 200.00000000 200.00000000 200.00000000 200.00000000 200.00000000 200.00000000 230.82605882 254.32340667 268.93325501 278.96432587 288.14008144 302.81235701 314.68213024 320.42059122 320.42059122 314.68213024 302.81235701 288.14008144 278.96432587 268.93325501 254.32340667 230.82605882 200.00000000 200.00000000 200.00000000 200.00000000 200.00000000 200.00000000 200.00000000 200.00000000 200.00000000 200.00000000 200.00000000 200.00000000 200.00000000 200.00000000 200.00000000 200.00000000 200.00000000 200.00000000 200.00000000 200.00000000 200.00000000 200.00000000 244.66265540 270.70333517 297.62851896 322.69448794 342.31037614 357.30179034 369.63344615 381.13721784 390.08307904 394.74996633 394.74996633 390.08307904 381.13721784 369.63344615 357.30179034 342.31037614 322.69448794 297.62851896 270.70333517 244.66265540 200.00000000 200.00000000 200.00000000 200.00000000 200.00000000 200.00000000 200.00000000 200.00000000 200.00000000 200.00000000 200.00000000 200.00000000 200.00000000 200.00000000 200.00000000 200.00000000 200.00000000 200.00000000 240.40706465 270.92650328 308.16143273 340.22699250 368.99842453 394.45569840 415.37943591 431.92878997 445.01689781 455.41516755 462.84077683 466.68658152 466.68658152 462.84077683 455.41516755 445.01689781 431.92878997 415.37943591 394.45569840 368.99842453 340.22699250 308.16143273 270.92650328 240.40706465 200.00000000 200.00000000 200.00000000 200.00000000 200.00000000 200.00000000 200.00000000 200.00000000 200.00000000 200.00000000 200.00000000 200.00000000 200.00000000 200.00000000 200.00000000 250.33870174 295.17472571 335.39750362 373.85300725 407.89646404 437.34593118 462.30650361 482.66416332 498.73137691 511.13281195 520.40466283 526.68232179 529.86178027 529.86178027 526.68232179 520.40466283 511.13281195 498.73137691 482.66416332 462.30650361 437.34593118 407.89646404 373.85300725 335.39750362 295.17472571 250.33870174 200.00000000 200.00000000 200.00000000 200.00000000 200.00000000 200.00000000 200.00000000 200.00000000 200.00000000 200.00000000 200.00000000 200.00000000 223.70514940 259.06608144 306.50611375 353.53453219 396.99980065 436.17011498 470.02086656 498.40841304 521.64225541 540.14357949 554.48369254 565.30191659 573.12767716 578.26007418 580.81092818 580.81092818 578.26007418 573.12767716 565.30191659 554.48369254 540.14357949 521.64225541 498.40841304 470.02086656 436.17011498 396.99980065 353.53453219 306.50611375 259.06608144 223.70514940 200.00000000 200.00000000 200.00000000 200.00000000 200.00000000 200.00000000 200.00000000 200.00000000 200.00000000 200.00000000 257.17819915 308.50895167 360.02758023 408.96957848 453.14622909 491.47296058 523.50231406 549.45967289 569.97804281 585.82887432 597.80115906 606.61272299 612.82643295 616.80975163 618.76037554 618.76037554 616.80975163 612.82643295 606.61272299 597.80115906 585.82887432 569.97804281 549.45967289 523.50231406 491.47296058 453.14622909 408.96957848 360.02758023 308.50895167 257.17819915 200.00000000 200.00000000 200.00000000 200.00000000 200.00000000 200.00000000 200.00000000 200.00000000 200.00000000 244.60080097 298.82876343 354.35057658 408.29108584 457.88023978 501.21282302 537.45291256 566.63178986 589.40572659 606.74822927 619.68937751 629.16693408 635.95290888 640.62227490 643.55636931 644.97472647 644.97472647 643.55636931 640.62227490 635.95290888 629.16693408 619.68937751 606.74822927 589.40572659 566.63178986 537.45291256 501.21282302 457.88023978 408.29108584 354.35057658 298.82876343 244.60080097 200.00000000 200.00000000 200.00000000 200.00000000 200.00000000 200.00000000 200.00000000 231.31926636 279.46269775 335.86272113 393.79829095 448.87359959 498.05327679 539.63462065 573.16395703 599.13787395 618.61948048 632.87517158 643.11461280 650.35610894 655.38352025 658.75376174 660.82931022 661.81995777 661.81995777 660.82931022 658.75376174 655.38352025 650.35610894 643.11461280 632.87517158 618.61948048 599.13787395 573.16395703 539.63462065 498.05327679 448.87359959 393.79829095 335.86272113 279.46269775 231.31926636 200.00000000 200.00000000 200.00000000 200.00000000 200.00000000 200.00000000 248.90617021 304.63537246 364.73380673 424.60198391 480.10553863 528.34854147 567.92118846 598.77055901 621.80544898 638.42160770 650.10177614 658.16429134 663.65599752 667.34221073 669.74428656 671.19211986 671.87395836 671.87395836 671.19211986 669.74428656 667.34221073 663.65599752 658.16429134 650.10177614 638.42160770 621.80544898 598.77055901 567.92118846 528.34854147 480.10553863 424.60198391 364.73380673 304.63537246 248.90617021 200.00000000 200.00000000 200.00000000 200.00000000 200.00000000 200.00000000 260.12015097 321.41228110 384.40608978 445.57795433 501.14379636 548.43213288 586.31428231 615.06439221 635.89772671 650.44022150 660.31064866 666.88242623 671.20267385 674.00870793 675.78634179 676.83490304 677.32208697 677.32208697 676.83490304 675.78634179 674.00870793 671.20267385 666.88242623 660.31064866 650.44022150 635.89772671 615.06439221 586.31428231 548.43213288 501.14379636 445.57795433 384.40608978 321.41228110 260.12015097 200.00000000 200.00000000 200.00000000 200.00000000 200.00000000 217.77728079 269.20086421 330.53519000 394.49096307 456.19436005 511.69559876 558.39738525 595.32505435 622.93244962 642.59682955 656.06039188 665.00594071 670.82810465 674.56781563 676.94329843 678.41889309 679.27604079 679.67044305 679.67044305 679.27604079 678.41889309 676.94329843 674.56781563 670.82810465 665.00594071 656.06039188 642.59682955 622.93244962 595.32505435 558.39738525 511.69559876 456.19436005 394.49096307 330.53519000 269.20086421 217.77728079 200.00000000 200.00000000 200.00000000 200.00000000 217.77728079 269.20086421 330.53519000 394.49096307 456.19436005 511.69559876 558.39738525 595.32505435 622.93244962 642.59682955 656.06039188 665.00594071 670.82810465 674.56781563 676.94329843 678.41889309 679.27604079 679.67044305 679.67044305 679.27604079 678.41889309 676.94329843 674.56781563 670.82810465 665.00594071 656.06039188 642.59682955 622.93244962 595.32505435 558.39738525 511.69559876 456.19436005 394.49096307 330.53519000 269.20086421 217.77728079 200.00000000 200.00000000 200.00000000 200.00000000 200.00000000 260.12015097 321.41228110 384.40608978 445.57795433 501.14379636 548.43213288 586.31428231 615.06439221 635.89772671 650.44022150 660.31064866 666.88242623 671.20267385 674.00870793 675.78634179 676.83490304 677.32208697 677.32208697 676.83490304 675.78634179 674.00870793 671.20267385 666.88242623 660.31064866 650.44022150 635.89772671 615.06439221 586.31428231 548.43213288 501.14379636 445.57795433 384.40608978 321.41228110 260.12015097 200.00000000 200.00000000 200.00000000 200.00000000 200.00000000 200.00000000 248.90617021 304.63537246 364.73380673 424.60198391 480.10553863 528.34854147 567.92118846 598.77055901 621.80544898 638.42160770 650.10177614 658.16429134 663.65599752 667.34221073 669.74428656 671.19211986 671.87395836 671.87395836 671.19211986 669.74428656 667.34221073 663.65599752 658.16429134 650.10177614 638.42160770 621.80544898 598.77055901 567.92118846 528.34854147 480.10553863 424.60198391 364.73380673 304.63537246 248.90617021 200.00000000 200.00000000 200.00000000 200.00000000 200.00000000 200.00000000 231.31926636 279.46269775 335.86272113 393.79829095 448.87359959 498.05327679 539.63462065 573.16395703 599.13787395 618.61948048 632.87517158 643.11461280 650.35610894 655.38352025 658.75376174 660.82931022 661.81995777 661.81995777 660.82931022 658.75376174 655.38352025 650.35610894 643.11461280 632.87517158 618.61948048 599.13787395 573.16395703 539.63462065 498.05327679 448.87359959 393.79829095 335.86272113 279.46269775 231.31926636 200.00000000 200.00000000 200.00000000 200.00000000 200.00000000 200.00000000 200.00000000 244.60080097 298.82876343 354.35057658 408.29108584 457.88023978 501.21282302 537.45291256 566.63178986 589.40572659 606.74822927 619.68937751 629.16693408 635.95290888 640.62227490 643.55636931 644.97472647 644.97472647 643.55636931 640.62227490 635.95290888 629.16693408 619.68937751 606.74822927 589.40572659 566.63178986 537.45291256 501.21282302 457.88023978 408.29108584 354.35057658 298.82876343 244.60080097 200.00000000 200.00000000 200.00000000 200.00000000 200.00000000 200.00000000 200.00000000 200.00000000 200.00000000 257.17819915 308.50895167 360.02758023 408.96957848 453.14622909 491.47296058 523.50231406 549.45967289 569.97804281 585.82887432 597.80115906 606.61272299 612.82643295 616.80975163 618.76037554 618.76037554 616.80975163 612.82643295 606.61272299 597.80115906 585.82887432 569.97804281 549.45967289 523.50231406 491.47296058 453.14622909 408.96957848 360.02758023 308.50895167 257.17819915 200.00000000 200.00000000 200.00000000 200.00000000 200.00000000 200.00000000 200.00000000 200.00000000 200.00000000 200.00000000 223.70514940 259.06608144 306.50611375 353.53453219 396.99980065 436.17011498 470.02086656 498.40841304 521.64225541 540.14357949 554.48369254 565.30191659 573.12767716 578.26007418 580.81092818 580.81092818 578.26007418 573.12767716 565.30191659 554.48369254 540.14357949 521.64225541 498.40841304 470.02086656 436.17011498 396.99980065 353.53453219 306.50611375 259.06608144 223.70514940 200.00000000 200.00000000 200.00000000 200.00000000 200.00000000 200.00000000 200.00000000 200.00000000 200.00000000 200.00000000 200.00000000 200.00000000 250.33870174 295.17472571 335.39750362 373.85300725 407.89646404 437.34593118 462.30650361 482.66416332 498.73137691 511.13281195 520.40466283 526.68232179 529.86178027 529.86178027 526.68232179 520.40466283 511.13281195 498.73137691 482.66416332 462.30650361 437.34593118 407.89646404 373.85300725 335.39750362 295.17472571 250.33870174 200.00000000 200.00000000 200.00000000 200.00000000 200.00000000 200.00000000 200.00000000 200.00000000 200.00000000 200.00000000 200.00000000 200.00000000 200.00000000 200.00000000 200.00000000 240.40706465 270.92650328 308.16143273 340.22699250 368.99842453 394.45569840 415.37943591 431.92878997 445.01689781 455.41516755 462.84077683 466.68658152 466.68658152 462.84077683 455.41516755 445.01689781 431.92878997 415.37943591 394.45569840 368.99842453 340.22699250 308.16143273 270.92650328 240.40706465 200.00000000 200.00000000 200.00000000 200.00000000 200.00000000 200.00000000 200.00000000 200.00000000 200.00000000 200.00000000 200.00000000 200.00000000 200.00000000 200.00000000 200.00000000 200.00000000 200.00000000 200.00000000 244.66265540 270.70333517 297.62851896 322.69448794 342.31037614 357.30179034 369.63344615 381.13721784 390.08307904 394.74996633 394.74996633 390.08307904 381.13721784 369.63344615 357.30179034 342.31037614 322.69448794 297.62851896 270.70333517 244.66265540 200.00000000 200.00000000 200.00000000 200.00000000 200.00000000 200.00000000 200.00000000 200.00000000 200.00000000 200.00000000 200.00000000 200.00000000 200.00000000 200.00000000 200.00000000 200.00000000 200.00000000 200.00000000 200.00000000 200.00000000 200.00000000 200.00000000 230.82605882 254.32340667 268.93325501 278.96432587 288.14008144 302.81235701 314.68213024 320.42059122 320.42059122 314.68213024 302.81235701 288.14008144 278.96432587 268.93325501 254.32340667 230.82605882 200.00000000 200.00000000 200.00000000 200.00000000 200.00000000 200.00000000 200.00000000 200.00000000 200.00000000 200.00000000 200.00000000 200.00000000 200.00000000 200.00000000 200.00000000 200.00000000 200.00000000 200.00000000 200.00000000 200.00000000 200.00000000 200.00000000 200.00000000 200.00000000 200.00000000 200.00000000 200.00000000 200.00000000 200.00000000 230.28871558 246.66690111 252.68351289 252.68351289 246.66690111 230.28871558 200.00000000 200.00000000 200.00000000 200.00000000 200.00000000 200.00000000 200.00000000 200.00000000 200.00000000 200.00000000 200.00000000 200.00000000 200.00000000 200.00000000 200.00000000 200.00000000 200.00000000 200.00000000 200.00000000 200.00000000 200.00000000 200.00000000 200.00000000 200.00000000 200.00000000 200.00000000 200.00000000 200.00000000 200.00000000 200.00000000 200.00000000 200.00000000 200.00000000 200.00000000 200.00000000 200.00000000 200.00000000 200.00000000 200.00000000 200.00000000 200.00000000 200.00000000 200.00000000 200.00000000 200.00000000 200.00000000 200.00000000 200.00000000 200.00000000 200.00000000 200.00000000 200.00000000 200.00000000 200.00000000 200.00000000 200.00000000 200.00000000 200.00000000 200.00000000 200.00000000 200.00000000 200.00000000 200.00000000 200.00000000 200.00000000 200.00000000 200.00000000 200.00000000 200.00000000 200.00000000 200.00000000 200.00000000 200.00000000 200.00000000 200.00000000 200.00000000 200.00000000 200.00000000 200.00000000 200.00000000 200.00000000 200.00000000 200.00000000 200.00000000 200.00000000 200.00000000 200.00000000 200.00000000 200.00000000 200.00000000 200.00000000 200.00000000 200.00000000 200.00000000 200.00000000 200.00000000 200.00000000 200.00000000 200.00000000 200.00000000 200.00000000 200.00000000 200.00000000 200.00000000 200.00000000 200.00000000 200.00000000 200.00000000 200.00000000 200.00000000 200.00000000 200.00000000 200.00000000 200.00000000 200.00000000 200.00000000 200.00000000 200.00000000 200.00000000 200.00000000 200.00000000 200.00000000 200.00000000 200.00000000 200.00000000 200.00000000 200.00000000 200.00000000 200.00000000 200.00000000 200.00000000 200.00000000 200.00000000 200.00000000 200.00000000 200.00000000 200.00000000 200.00000000 200.00000000 200.00000000 200.00000000 200.00000000 200.00000000 200.00000000 200.00000000 200.00000000 200.00000000 200.00000000 200.00000000 200.00000000 200.00000000 200.00000000 200.00000000 200.00000000 200.00000000 200.00000000 200.00000000 200.00000000 200.00000000 200.00000000 200.00000000 200.00000000 200.00000000 200.00000000 200.00000000 200.00000000 200.00000000 200.00000000 200.00000000 200.00000000 200.00000000 200.00000000 200.00000000 200.00000000 200.00000000 200.00000000 200.00000000 200.00000000 200.00000000 200.00000000 200.00000000 200.00000000 200.00000000 200.00000000 200.00000000 200.00000000 200.00000000 200.00000000 200.00000000 200.00000000 200.00000000 200.00000000 200.00000000 200.00000000 200.00000000 200.00000000 200.00000000 200.00000000 200.00000000 200.00000000 200.00000000 200.00000000 200.00000000 200.00000000 200.00000000 200.00000000 200.00000000 200.00000000 200.00000000 200.00000000 200.00000000 200.00000000 200.00000000 200.00000000 200.00000000 200.00000000 200.00000000 200.00000000 200.00000000 200.00000000 200.00000000 200.00000000 200.00000000 200.00000000 200.00000000 200.00000000 200.00000000 200.00000000 200.00000000 200.00000000 200.00000000 200.00000000 200.00000000 200.00000000 200.00000000 200.00000000 200.00000000 200.00000000 200.00000000 200.00000000 200.00000000 200.00000000 200.00000000 200.00000000 200.00000000 200.00000000 200.00000000 200.00000000 200.00000000 200.00000000 200.00000000 200.00000000 200.00000000 200.00000000 200.00000000 200.00000000 200.00000000 200.00000000 200.00000000 200.00000000 200.00000000 200.00000000 200.00000000 200.00000000 200.00000000 200.00000000 200.00000000 200.00000000 200.00000000 200.00000000 200.00000000 200.00000000 200.00000000 200.00000000 200.00000000 200.00000000 200.00000000 200.00000000 200.00000000 200.00000000 200.00000000 200.00000000 200.00000000 200.00000000 200.00000000 200.00000000 200.00000000 200.00000000 200.00000000 200.00000000 200.00000000 200.00000000 200.00000000 200.00000000 200.00000000 200.00000000 200.00000000 200.00000000 200.00000000 200.00000000 200.00000000 200.00000000 200.00000000 200.00000000 200.00000000 200.00000000 200.00000000 200.00000000 200.00000000 200.00000000 200.00000000 200.00000000 200.00000000 200.00000000 200.00000000 200.00000000 200.00000000 200.00000000 200.00000000 200.00000000 200.00000000 200.00000000 200.00000000 200.00000000 200.00000000 200.00000000 200.00000000 200.00000000 200.00000000 200.00000000 200.00000000 200.00000000 200.00000000 200.00000000 200.00000000 200.00000000 200.00000000 