# vtk DataFile Version 3.0
VTK - Matlab export
ASCII
DATASET STRUCTURED_POINTS
DIMENSIONS 40 40 1
SPACING 1 1 1
ORIGIN 0 0 0
POINT_DATA 1600
SCALARS Temperature float 1
LOOKUP_TABLE default
200.00000000 200.00000000 200.00000000 200.00000000 200.00000000 200.00000000 200.00000000 200.00000000 200.00000000 200.00000000 200.00000000 200.00000000 200.00000000 200.00000000 200.00000000 200.00000000 200.00000000 200.00000000 200.00000000 200.00000000 200.00000000 200.00000000 200.00000000 200.00000000 200.00000000 200.00000000 200.00000000 200.00000000 200.00000000 200.00000000 200.00000000 200.00000000 200.00000000 200.00000000 200.00000000 200.00000000 200.00000000 200.00000000 200.00000000 200.00000000 200.00000000 200.00000000 200.00000000 200.00000000 200.00000000 200.00000000 200.00000000 200.00000000 200.00000000 200.00000000 200.00000000 200.00000000 200.00000000 200.00000000 200.00000000 200.00000000 200.00000000 200.00000000 200.00000000 200.00000000 200.00000000 200.00000000 200.00000000 200.00000000 200.00000000 200.00000000 200.00000000 200.00000000 200.00000000 200.00000000 200.00000000 200.00000000 200.00000000 200.00000000 200.00000000 200.00000000 200.00000000 200.00000000 200.00000000 200.00000000 200.00000000 200.00000000 200.00000000 200.00000000 200.00000000 200.00000000 200.00000000 200.00000000 200.00000000 200.00000000 200.00000000 200.00000000 200.00000000 200.00000000 200.00000000 200.00000000 200.00000000 200.00000000 200.00000000 200.00000000 200.00000000 200.00000000 200.00000000 200.00000000 200.00000000 200.00000000 200.00000000 200.00000000 200.00000000 200.00000000 200.00000000 200.00000000 200.00000000 200.00000000 200.00000000 200.00000000 200.00000000 200.00000000 200.00000000 200.00000000 200.00000000 200.00000000 200.00000000 200.00000000 200.00000000 200.00000000 200.00000000 200.00000000 200.00000000 200.00000000 200.00000000 200.00000000 200.00000000 200.00000000 200.00000000 200.00000000 200.00000000 200.00000000 200.00000000 200.00000000 200.00000000 200.00000000 200.00000000 200.00000000 200.00000000 200.00000000 200.00000000 200.00000000 200.00000000 200.00000000 200.00000000 200.00000000 200.00000000 200.00000000 200.00000000 200.00000000 200.00000000 200.00000000 200.00000000 200.00000000 200.00000000 200.00000000 200.00000000 200.00000000 200.00000000 200.00000000 200.00000000 200.00000000 200.00000000 200.00000000 200.00000000 200.00000000 200.00000000 200.00000000 200.00000000 200.00000000 200.00000000 200.00000000 200.00000000 200.00000000 200.00000000 200.00000000 200.00000000 200.00000000 200.00000000 200.00000000 200.00000000 200.00000000 200.00000000 200.00000000 200.00000000 200.00000000 200.00000000 200.00000000 200.00000000 200.00000000 200.00000000 200.00000000 200.00000000 200.00000000 200.00000000 200.00000000 200.00000000 200.00000000 200.00000000 200.00000000 200.00000000 200.00000000 200.00000000 200.00000000 200.00000000 200.00000000 200.00000000 200.00000000 200.00000000 200.00000000 200.00000000 200.00000000 200.00000000 200.00000000 200.00000000 200.00000000 200.00000000 200.00000000 200.00000000 200.00000000 200.00000000 200.00000000 200.00000000 200.00000000 200.00000000 200.00000000 200.00000000 200.00000000 200.00000000 200.00000000 200.00000000 200.00000000 200.00000000 200.00000000 200.00000000 200.00000000 200.00000000 200.00000000 200.00000000 200.00000000 200.00000000 200.00000000 200.00000000 200.00000000 200.00000000 200.00000000 200.00000000 200.00000000 200.00000000 200.00000000 200.00000000 200.00000000 200.00000000 200.00000000 200.00000000 200.00000000 200.00000000 200.00000000 200.00000000 200.00000000 200.00000000 200.00000000 200.00000000 200.00000000 200.00000000 200.00000000 200.00000000 200.00000000 200.00000000 200.00000000 200.00000000 200.00000000 200.00000000 200.00000000 200.00000000 200.00000000 200.00000000 200.00000000 200.00000000 200.00000000 200.00000000 200.00000000 200.00000000 200.00000000 200.00000000 200.00000000 200.00000000 200.00000000 200.00000000 200.00000000 200.00000000 200.00000000 200.00000000 200.00000000 200.00000000 200.00000000 200.00000000 200.00000000 200.00000000 200.00000000 200.00000000 200.00000000 200.00000000 200.00000000 200.00000000 200.00000000 200.00000000 200.00000000 200.00000000 200.00000000 200.00000000 200.00000000 200.00000000 200.00000000 200.00000000 200.00000000 200.00000000 200.00000000 200.00000000 200.00000000 200.00000000 200.00000000 200.00000000 200.00000000 200.00000000 200.00000000 200.00000000 200.00000000 200.00000000 200.00000000 200.00000000 225.46464779 239.18209796 244.20924188 244.20924188 239.18209796 225.46464779 200.00000000 200.00000000 200.00000000 200.00000000 200.00000000 200.00000000 200.00000000 200.00000000 200.00000000 200.00000000 200.00000000 200.00000000 200.00000000 200.00000000 200.00000000 200.00000000 200.00000000 200.00000000 200.00000000 200.00000000 200.00000000 200.00000000 200.00000000 200.00000000 200.00000000 200.00000000 200.00000000 200.00000000 200.00000000 225.73179960 245.42699855 257.80381139 266.41949534 274.31859338 286.75579765 296.76792016 301.60196400 301.60196400 296.76792016 286.75579765 274.31859338 266.41949534 257.80381139 245.42699855 225.73179960 200.00000000 200.00000000 200.00000000 200.00000000 200.00000000 200.00000000 200.00000000 200.00000000 200.00000000 200.00000000 200.00000000 200.00000000 200.00000000 200.00000000 200.00000000 200.00000000 200.00000000 200.00000000 200.00000000 200.00000000 200.00000000 200.00000000 237.08939553 258.92501105 281.68407627 303.04847883 320.00013054 333.15348517 344.04648205 354.12144452 361.89903023 365.94654023 365.94654023 361.89903023 354.12144452 344.04648205 333.15348517 320.00013054 303.04847883 281.68407627 258.92501105 237.08939553 200.00000000 200.00000000 200.00000000 200.00000000 200.00000000 200.00000000 200.00000000 200.00000000 200.00000000 200.00000000 200.00000000 200.00000000 200.00000000 200.00000000 200.00000000 200.00000000 200.00000000 200.00000000 233.30767612 258.74734314 290.04556076 317.41596355 342.35689437 364.75072686 383.47982747 398.55525807 410.61138447 420.18962017 426.99919301 430.51647069 430.51647069 426.99919301 420.18962017 410.61138447 398.55525807 383.47982747 364.75072686 342.35689437 317.41596355 290.04556076 258.74734314 233.30767612 200.00000000 200.00000000 200.00000000 200.00000000 200.00000000 200.00000000 200.00000000 200.00000000 200.00000000 200.00000000 200.00000000 200.00000000 200.00000000 200.00000000 200.00000000 241.31178561 278.53983651 312.53690133 345.63848257 375.59534796 402.11329829 425.09669399 444.27113648 459.73019183 471.85145620 480.97723106 487.16054057 490.28971781 490.28971781 487.16054057 480.97723106 471.85145620 459.73019183 444.27113648 425.09669399 402.11329829 375.59534796 345.63848257 312.53690133 278.53983651 241.31178561 200.00000000 200.00000000 200.00000000 200.00000000 200.00000000 200.00000000 200.00000000 200.00000000 200.00000000 200.00000000 200.00000000 200.00000000 219.18839663 248.10912142 287.41473133 327.14803727 364.80980158 399.71111844 430.81072599 457.72794811 480.44660289 499.07705294 513.90486692 525.32536055 533.69293169 539.21256345 541.96130587 541.96130587 539.21256345 533.69293169 525.32536055 513.90486692 499.07705294 480.44660289 457.72794811 430.81072599 399.71111844 364.80980158 327.14803727 287.41473133 248.10912142 219.18839663 200.00000000 200.00000000 200.00000000 200.00000000 200.00000000 200.00000000 200.00000000 200.00000000 200.00000000 200.00000000 246.21239612 288.37265448 331.68554743 374.06041480 413.66696377 449.37826615 480.46870679 506.73367493 528.34669731 545.67975551 559.21042405 569.43455082 576.77580177 581.53064208 583.87020494 583.87020494 581.53064208 576.77580177 569.43455082 559.21042405 545.67975551 528.34669731 506.73367493 480.46870679 449.37826615 413.66696377 374.06041480 331.68554743 288.37265448 246.21239612 200.00000000 200.00000000 200.00000000 200.00000000 200.00000000 200.00000000 200.00000000 200.00000000 200.00000000 235.71261334 279.73622279 325.86153768 372.12396183 416.36837836 456.84464003 492.44329729 522.66089372 547.53190038 567.46343708 583.05149414 594.94377578 603.74281628 609.94138083 613.89351446 615.81825445 615.81825445 613.89351446 609.94138083 603.74281628 594.94377578 583.05149414 567.46343708 547.53190038 522.66089372 492.44329729 456.84464003 416.36837836 372.12396183 325.86153768 279.73622279 235.71261334 200.00000000 200.00000000 200.00000000 200.00000000 200.00000000 200.00000000 200.00000000 224.85533419 263.46378365 309.57906564 358.38636122 406.69154606 452.02275360 492.61659769 527.47941052 556.33118663 579.45552488 597.49048083 611.22435060 621.44265492 628.83297999 633.93764034 637.14238369 638.68777139 638.68777139 637.14238369 633.93764034 628.83297999 621.44265492 611.22435060 597.49048083 579.45552488 556.33118663 527.47941052 492.61659769 452.02275360 406.69154606 358.38636122 309.57906564 263.46378365 224.85533419 200.00000000 200.00000000 200.00000000 200.00000000 200.00000000 200.00000000 238.75635413 283.49249040 332.94891227 384.05075894 433.77223794 479.62899714 519.91649218 553.79032730 581.18259591 602.60030588 618.87806062 630.95509630 639.71731336 645.90933182 650.10162229 652.69301805 653.93037344 653.93037344 652.69301805 650.10162229 645.90933182 639.71731336 630.95509630 618.87806062 602.60030588 581.18259591 553.79032730 519.91649218 479.62899714 433.77223794 384.05075894 332.94891227 283.49249040 238.75635413 200.00000000 200.00000000 200.00000000 200.00000000 200.00000000 200.00000000 247.60790574 296.86180057 348.95846231 401.70508279 452.30999697 498.35913564 538.23152847 571.21674126 597.41425297 617.49851550 632.44516387 643.29578928 650.99975682 656.33409484 659.88178843 662.04429090 663.06768416 663.06768416 662.04429090 659.88178843 656.33409484 650.99975682 643.29578928 632.44516387 617.49851550 597.41425297 571.21674126 538.23152847 498.35913564 452.30999697 401.70508279 348.95846231 296.86180057 247.60790574 200.00000000 200.00000000 200.00000000 200.00000000 200.00000000 214.01683820 254.75346509 304.13009206 357.19412851 410.70395472 461.71229064 507.80246885 547.39860783 579.86653913 605.39765514 624.75576740 638.98970806 649.19232267 656.34317457 661.23331530 664.44972288 666.39311554 667.30762185 667.30762185 666.39311554 664.44972288 661.23331530 656.34317457 649.19232267 638.98970806 624.75576740 605.39765514 579.86653913 547.39860783 507.80246885 461.71229064 410.70395472 357.19412851 304.13009206 254.75346509 214.01683820 200.00000000 200.00000000 200.00000000 200.00000000 214.01683820 254.75346509 304.13009206 357.19412851 410.70395472 461.71229064 507.80246885 547.39860783 579.86653913 605.39765514 624.75576740 638.98970806 649.19232267 656.34317457 661.23331530 664.44972288 666.39311554 667.30762185 667.30762185 666.39311554 664.44972288 661.23331530 656.34317457 649.19232267 638.98970806 624.75576740 605.39765514 579.86653913 547.39860783 507.80246885 461.71229064 410.70395472 357.19412851 304.13009206 254.75346509 214.01683820 200.00000000 200.00000000 200.00000000 200.00000000 200.00000000 247.60790574 296.86180057 348.95846231 401.70508279 452.30999697 498.35913564 538.23152847 571.21674126 597.41425297 617.49851550 632.44516387 643.29578928 650.99975682 656.33409484 659.88178843 662.04429090 663.06768416 663.06768416 662.04429090 659.88178843 656.33409484 650.99975682 643.29578928 632.44516387 617.49851550 597.41425297 571.21674126 538.23152847 498.35913564 452.30999697 401.70508279 348.95846231 296.86180057 247.60790574 200.00000000 200.00000000 200.00000000 200.00000000 200.00000000 200.00000000 238.75635413 283.49249040 332.94891227 384.05075894 433.77223794 479.62899714 519.91649218 553.79032730 581.18259591 602.60030588 618.87806062 630.95509630 639.71731336 645.90933182 650.10162229 652.69301805 653.93037344 653.93037344 652.69301805 650.10162229 645.90933182 639.71731336 630.95509630 618.87806062 602.60030588 581.18259591 553.79032730 519.91649218 479.62899714 433.77223794 384.05075894 332.94891227 283.49249040 238.75635413 200.00000000 200.00000000 200.00000000 200.00000000 200.00000000 200.00000000 224.85533419 263.46378365 309.57906564 358.38636122 406.69154606 452.02275360 492.61659769 527.47941052 556.33118663 579.45552488 597.49048083 611.22435060 621.44265492 628.83297999 633.93764034 637.14238369 638.68777139 638.68777139 637.14238369 633.93764034 628.83297999 621.44265492 611.22435060 597.49048083 579.45552488 556.33118663 527.47941052 492.61659769 452.02275360 406.69154606 358.38636122 309.57906564 263.46378365 224.85533419 200.00000000 200.00000000 200.00000000 200.00000000 200.00000000 200.00000000 200.00000000 235.71261334 279.73622279 325.86153768 372.12396183 416.36837836 456.84464003 492.44329729 522.66089372 547.53190038 567.46343708 583.05149414 594.94377578 603.74281628 609.94138083 613.89351446 615.81825445 615.81825445 613.89351446 609.94138083 603.74281628 594.94377578 583.05149414 567.46343708 547.53190038 522.66089372 492.44329729 456.84464003 416.36837836 372.12396183 325.86153768 279.73622279 235.71261334 200.00000000 200.00000000 200.00000000 200.00000000 200.00000000 200.00000000 200.00000000 200.00000000 200.00000000 246.21239612 288.37265448 331.68554743 374.06041480 413.66696377 449.37826615 480.46870679 506.73367493 528.34669731 545.67975551 559.21042405 569.43455082 576.77580177 581.53064208 583.87020494 583.87020494 581.53064208 576.77580177 569.43455082 559.21042405 545.67975551 528.34669731 506.73367493 480.46870679 449.37826615 413.66696377 374.06041480 331.68554743 288.37265448 246.21239612 200.00000000 200.00000000 200.00000000 200.00000000 200.00000000 200.00000000 200.00000000 200.00000000 200.00000000 200.00000000 219.18839663 248.10912142 287.41473133 327.14803727 364.80980158 399.71111844 430.81072599 457.72794811 480.44660289 499.07705294 513.90486692 525.32536055 533.69293169 539.21256345 541.96130587 541.96130587 539.21256345 533.69293169 525.32536055 513.90486692 499.07705294 480.44660289 457.72794811 430.81072599 399.71111844 364.80980158 327.14803727 287.41473133 248.10912142 219.18839663 200.00000000 200.00000000 200.00000000 200.00000000 200.00000000 200.00000000 200.00000000 200.00000000 200.00000000 200.00000000 200.00000000 200.00000000 241.31178561 278.53983651 312.53690133 345.63848257 375.59534796 402.11329829 425.09669399 444.27113648 459.73019183 471.85145620 480.97723106 487.16054057 490.28971781 490.28971781 487.16054057 480.97723106 471.85145620 459.73019183 444.27113648 425.09669399 402.11329829 375.59534796 345.63848257 312.53690133 278.53983651 241.31178561 200.00000000 200.00000000 200.00000000 200.00000000 200.00000000 200.00000000 200.00000000 200.00000000 200.00000000 200.00000000 200.00000000 200.00000000 200.00000000 200.00000000 200.00000000 233.30767612 258.74734314 290.04556076 317.41596355 342.35689437 364.75072686 383.47982747 398.55525807 410.61138447 420.18962017 426.99919301 430.51647069 430.51647069 426.99919301 420.18962017 410.61138447 398.55525807 383.47982747 364.75072686 342.35689437 317.41596355 290.04556076 258.74734314 233.30767612 200.00000000 200.00000000 200.00000000 200.00000000 200.00000000 200.00000000 200.00000000 200.00000000 200.00000000 200.00000000 200.00000000 200.00000000 200.00000000 200.00000000 200.00000000 200.00000000 200.00000000 200.00000000 237.08939553 258.92501105 281.68407627 303.04847883 320.00013054 333.15348517 344.04648205 354.12144452 361.89903023 365.94654023 365.94654023 361.89903023 354.12144452 344.04648205 333.15348517 320.00013054 303.04847883 281.68407627 258.92501105 237.08939553 200.00000000 200.00000000 200.00000000 200.00000000 200.00000000 200.00000000 200.00000000 200.00000000 200.00000000 200.00000000 200.00000000 200.00000000 200.00000000 200.00000000 200.00000000 200.00000000 200.00000000 200.00000000 200.00000000 200.00000000 200.00000000 200.00000000 225.73179960 245.42699855 257.80381139 266.41949534 274.31859338 286.75579765 296.76792016 301.60196400 301.60196400 296.76792016 286.75579765 274.31859338 266.41949534 257.80381139 245.42699855 225.73179960 200.00000000 200.00000000 200.00000000 200.00000000 200.00000000 200.00000000 200.00000000 200.00000000 200.00000000 200.00000000 200.00000000 200.00000000 200.00000000 200.00000000 200.00000000 200.00000000 200.00000000 200.00000000 200.00000000 200.00000000 200.00000000 200.00000000 200.00000000 200.00000000 200.00000000 200.00000000 200.00000000 200.00000000 200.00000000 225.46464779 239.18209796 244.20924188 244.20924188 239.18209796 225.46464779 200.00000000 200.00000000 200.00000000 200.00000000 200.00000000 200.00000000 200.00000000 200.00000000 200.00000000 200.00000000 200.00000000 200.00000000 200.00000000 200.00000000 200.00000000 200.00000000 200.00000000 200.00000000 200.00000000 200.00000000 200.00000000 200.00000000 200.00000000 200.00000000 200.00000000 200.00000000 200.00000000 200.00000000 200.00000000 200.00000000 200.00000000 200.00000000 200.00000000 200.00000000 200.00000000 200.00000000 200.00000000 200.00000000 200.00000000 200.00000000 200.00000000 200.00000000 200.00000000 200.00000000 200.00000000 200.00000000 200.00000000 200.00000000 200.00000000 200.00000000 200.00000000 200.00000000 200.00000000 200.00000000 200.00000000 200.00000000 200.00000000 200.00000000 200.00000000 200.00000000 200.00000000 200.00000000 200.00000000 200.00000000 200.00000000 200.00000000 200.00000000 200.00000000 200.00000000 200.00000000 200.00000000 200.00000000 200.00000000 200.00000000 200.00000000 200.00000000 200.00000000 200.00000000 200.00000000 200.00000000 200.00000000 200.00000000 200.00000000 200.00000000 200.00000000 200.00000000 200.00000000 200.00000000 200.00000000 200.00000000 200.00000000 200.00000000 200.00000000 200.00000000 200.00000000 200.00000000 200.00000000 200.00000000 200.00000000 200.00000000 200.00000000 200.00000000 200.00000000 200.00000000 200.00000000 200.00000000 200.00000000 200.00000000 200.00000000 200.00000000 200.00000000 200.00000000 200.00000000 200.00000000 200.00000000 200.00000000 200.00000000 200.00000000 200.00000000 200.00000000 200.00000000 200.00000000 200.00000000 200.00000000 200.00000000 200.00000000 200.00000000 200.00000000 200.00000000 200.00000000 200.00000000 200.00000000 200.00000000 200.00000000 200.00000000 200.00000000 200.00000000 200.00000000 200.00000000 200.00000000 200.00000000 200.00000000 200.00000000 200.00000000 200.00000000 200.00000000 200.00000000 200.00000000 200.00000000 200.00000000 200.00000000 200.00000000 200.00000000 200.00000000 200.00000000 200.00000000 200.00000000 200.00000000 200.00000000 200.00000000 200.00000000 200.00000000 200.00000000 200.00000000 200.00000000 200.00000000 200.00000000 200.00000000 200.00000000 200.00000000 200.00000000 200.00000000 200.00000000 200.00000000 200.00000000 200.00000000 200.00000000 200.00000000 200.00000000 200.00000000 200.00000000 200.00000000 200.00000000 200.00000000 200.00000000 200.00000000 200.00000000 200.00000000 200.00000000 200.00000000 200.00000000 200.00000000 200.00000000 200.00000000 200.00000000 200.00000000 200.00000000 200.00000000 200.00000000 200.00000000 200.00000000 200.00000000 200.00000000 200.00000000 200.00000000 200.00000000 200.00000000 200.00000000 200.00000000 200.00000000 200.00000000 200.00000000 200.00000000 200.00000000 200.00000000 200.00000000 200.00000000 200.00000000 200.00000000 200.00000000 200.00000000 200.00000000 200.00000000 200.00000000 200.00000000 200.00000000 200.00000000 200.00000000 200.00000000 200.00000000 200.00000000 200.00000000 200.00000000 200.00000000 200.00000000 200.00000000 200.00000000 200.00000000 200.00000000 200.00000000 200.00000000 200.00000000 200.00000000 200.00000000 200.00000000 200.00000000 200.00000000 200.00000000 200.00000000 200.00000000 200.00000000 200.00000000 200.00000000 200.00000000 200.00000000 200.00000000 200.00000000 200.00000000 200.00000000 200.00000000 200.00000000 200.00000000 200.00000000 200.00000000 200.00000000 200.00000000 200.00000000 200.00000000 200.00000000 200.00000000 200.00000000 200.00000000 200.00000000 200.00000000 200.00000000 200.00000000 200.00000000 200.00000000 200.00000000 200.00000000 200.00000000 200.00000000 200.00000000 200.00000000 200.00000000 200.00000000 200.00000000 200.00000000 200.00000000 200.00000000 200.00000000 200.00000000 200.00000000 200.00000000 200.00000000 200.00000000 200.00000000 200.00000000 200.00000000 200.00000000 200.00000000 200.00000000 200.00000000 200.00000000 200.00000000 200.00000000 200.00000000 200.00000000 200.00000000 200.00000000 200.00000000 200.00000000 200.00000000 200.00000000 200.00000000 200.00000000 200.00000000 200.00000000 200.00000000 200.00000000 200.00000000 200.00000000 200.00000000 200.00000000 200.00000000 200.00000000 200.00000000 200.00000000 200.00000000 200.00000000 200.00000000 200.00000000 200.00000000 200.00000000 200.00000000 200.00000000 200.00000000 