# vtk DataFile Version 3.0
VTK - Matlab export
ASCII
DATASET STRUCTURED_POINTS
DIMENSIONS 40 40 1
SPACING 1 1 1
ORIGIN 0 0 0
POINT_DATA 1600
SCALARS Temperature float 1
LOOKUP_TABLE default
200.00000000 200.00000000 200.00000000 200.00000000 200.00000000 200.00000000 200.00000000 200.00000000 200.00000000 200.00000000 200.00000000 200.00000000 200.00000000 200.00000000 200.00000000 200.00000000 200.00000000 200.00000000 200.00000000 200.00000000 200.00000000 200.00000000 200.00000000 200.00000000 200.00000000 200.00000000 200.00000000 200.00000000 200.00000000 200.00000000 200.00000000 200.00000000 200.00000000 200.00000000 200.00000000 200.00000000 200.00000000 200.00000000 200.00000000 200.00000000 200.00000000 200.00000000 200.00000000 200.00000000 200.00000000 200.00000000 200.00000000 200.00000000 200.00000000 200.00000000 200.00000000 200.00000000 200.00000000 200.00000000 200.00000000 200.00000000 200.00000000 200.00000000 200.00000000 200.00000000 200.00000000 200.00000000 200.00000000 200.00000000 200.00000000 200.00000000 200.00000000 200.00000000 200.00000000 200.00000000 200.00000000 200.00000000 200.00000000 200.00000000 200.00000000 200.00000000 200.00000000 200.00000000 200.00000000 200.00000000 200.00000000 200.00000000 200.00000000 200.00000000 200.00000000 200.00000000 200.00000000 200.00000000 200.00000000 200.00000000 200.00000000 200.00000000 200.00000000 200.00000000 200.00000000 200.00000000 200.00000000 200.00000000 200.00000000 200.00000000 200.00000000 200.00000000 200.00000000 200.00000000 200.00000000 200.00000000 200.00000000 200.00000000 200.00000000 200.00000000 200.00000000 200.00000000 200.00000000 200.00000000 200.00000000 200.00000000 200.00000000 200.00000000 200.00000000 200.00000000 200.00000000 200.00000000 200.00000000 200.00000000 200.00000000 200.00000000 200.00000000 200.00000000 200.00000000 200.00000000 200.00000000 200.00000000 200.00000000 200.00000000 200.00000000 200.00000000 200.00000000 200.00000000 200.00000000 200.00000000 200.00000000 200.00000000 200.00000000 200.00000000 200.00000000 200.00000000 200.00000000 200.00000000 200.00000000 200.00000000 200.00000000 200.00000000 200.00000000 200.00000000 200.00000000 200.00000000 200.00000000 200.00000000 200.00000000 200.00000000 200.00000000 200.00000000 200.00000000 200.00000000 200.00000000 200.00000000 200.00000000 200.00000000 200.00000000 200.00000000 200.00000000 200.00000000 200.00000000 200.00000000 200.00000000 200.00000000 200.00000000 200.00000000 200.00000000 200.00000000 200.00000000 200.00000000 200.00000000 200.00000000 200.00000000 200.00000000 200.00000000 200.00000000 200.00000000 200.00000000 200.00000000 200.00000000 200.00000000 200.00000000 200.00000000 200.00000000 200.00000000 200.00000000 200.00000000 200.00000000 200.00000000 200.00000000 200.00000000 200.00000000 200.00000000 200.00000000 200.00000000 200.00000000 200.00000000 200.00000000 200.00000000 200.00000000 200.00000000 200.00000000 200.00000000 200.00000000 200.00000000 200.00000000 200.00000000 200.00000000 200.00000000 200.00000000 200.00000000 200.00000000 200.00000000 200.00000000 200.00000000 200.00000000 200.00000000 200.00000000 200.00000000 200.00000000 200.00000000 200.00000000 200.00000000 200.00000000 200.00000000 200.00000000 200.00000000 200.00000000 200.00000000 200.00000000 200.00000000 200.00000000 200.00000000 200.00000000 200.00000000 200.00000000 200.00000000 200.00000000 200.00000000 200.00000000 200.00000000 200.00000000 200.00000000 200.00000000 200.00000000 200.00000000 200.00000000 200.00000000 200.00000000 200.00000000 200.00000000 200.00000000 200.00000000 200.00000000 200.00000000 200.00000000 200.00000000 200.00000000 200.00000000 200.00000000 200.00000000 200.00000000 200.00000000 200.00000000 200.00000000 200.00000000 200.00000000 200.00000000 200.00000000 200.00000000 200.00000000 200.00000000 200.00000000 200.00000000 200.00000000 200.00000000 200.00000000 200.00000000 200.00000000 200.00000000 200.00000000 200.00000000 200.00000000 200.00000000 200.00000000 200.00000000 200.00000000 200.00000000 200.00000000 200.00000000 200.00000000 200.00000000 200.00000000 200.00000000 200.00000000 200.00000000 200.00000000 200.00000000 200.00000000 200.00000000 200.00000000 200.00000000 200.00000000 200.00000000 200.00000000 200.00000000 200.00000000 200.00000000 200.00000000 200.00000000 200.00000000 200.00000000 200.00000000 200.00000000 200.00000000 200.00000000 200.00000000 200.00000000 200.00000000 200.00000000 200.00000000 200.00000000 200.00000000 200.00000000 200.00000000 219.06876228 229.31150238 233.06066238 233.06066238 229.31150238 219.06876228 200.00000000 200.00000000 200.00000000 200.00000000 200.00000000 200.00000000 200.00000000 200.00000000 200.00000000 200.00000000 200.00000000 200.00000000 200.00000000 200.00000000 200.00000000 200.00000000 200.00000000 200.00000000 200.00000000 200.00000000 200.00000000 200.00000000 200.00000000 200.00000000 200.00000000 200.00000000 200.00000000 200.00000000 200.00000000 218.97488944 233.62258417 242.97970057 249.62205290 255.73970099 265.18461853 272.75099319 276.40359491 276.40359491 272.75099319 265.18461853 255.73970099 249.62205290 242.97970057 233.62258417 218.97488944 200.00000000 200.00000000 200.00000000 200.00000000 200.00000000 200.00000000 200.00000000 200.00000000 200.00000000 200.00000000 200.00000000 200.00000000 200.00000000 200.00000000 200.00000000 200.00000000 200.00000000 200.00000000 200.00000000 200.00000000 200.00000000 200.00000000 227.02643401 243.20487577 260.29668752 276.55108152 289.69856854 300.10848461 308.81552048 316.79998008 322.91917040 326.09837225 326.09837225 322.91917040 316.79998008 308.81552048 300.10848461 289.69856854 276.55108152 260.29668752 243.20487577 227.02643401 200.00000000 200.00000000 200.00000000 200.00000000 200.00000000 200.00000000 200.00000000 200.00000000 200.00000000 200.00000000 200.00000000 200.00000000 200.00000000 200.00000000 200.00000000 200.00000000 200.00000000 200.00000000 223.88928779 242.47006292 265.65421860 286.38954623 305.70729820 323.41167220 338.56342276 351.03655483 361.16270553 369.22871285 374.94792651 377.89784976 377.89784976 374.94792651 369.22871285 361.16270553 351.03655483 338.56342276 323.41167220 305.70729820 286.38954623 265.65421860 242.47006292 223.88928779 200.00000000 200.00000000 200.00000000 200.00000000 200.00000000 200.00000000 200.00000000 200.00000000 200.00000000 200.00000000 200.00000000 200.00000000 200.00000000 200.00000000 200.00000000 229.33902412 256.26089795 281.47899967 306.67583138 330.17368188 351.62583105 370.77655659 387.22647685 400.85091981 411.75533962 420.05687432 425.70491706 428.56731428 428.56731428 425.70491706 420.05687432 411.75533962 400.85091981 387.22647685 370.77655659 351.62583105 330.17368188 306.67583138 281.47899967 256.26089795 229.33902412 200.00000000 200.00000000 200.00000000 200.00000000 200.00000000 200.00000000 200.00000000 200.00000000 200.00000000 200.00000000 200.00000000 200.00000000 213.32741312 233.70749657 261.91445003 291.18455279 319.86415140 347.43195159 372.99340693 396.03863494 416.27545282 433.50452249 447.68546158 458.90611220 467.27932025 472.86082051 475.65467397 475.65467397 472.86082051 467.27932025 458.90611220 447.68546158 433.50452249 416.27545282 396.03863494 372.99340693 347.43195159 319.86415140 291.18455279 261.91445003 233.70749657 213.32741312 200.00000000 200.00000000 200.00000000 200.00000000 200.00000000 200.00000000 200.00000000 200.00000000 200.00000000 200.00000000 231.97679940 261.76422413 293.27903221 325.25879606 356.46950613 385.99413047 413.05109398 437.13817507 457.99751983 475.54416194 489.83394960 501.01269628 509.24651163 514.66787736 517.35927519 517.35927519 514.66787736 509.24651163 501.01269628 489.83394960 475.54416194 457.99751983 437.13817507 413.05109398 385.99413047 356.46950613 325.25879606 293.27903221 261.76422413 231.97679940 200.00000000 200.00000000 200.00000000 200.00000000 200.00000000 200.00000000 200.00000000 200.00000000 200.00000000 224.37192078 254.93906946 287.85954339 322.14278934 356.49068055 389.66482034 420.65317911 448.70145590 473.35197255 494.41530208 511.90615789 525.97873184 536.86006370 544.78637286 549.95610122 552.50642527 552.50642527 549.95610122 544.78637286 536.86006370 525.97873184 511.90615789 494.41530208 473.35197255 448.70145590 420.65317911 389.66482034 356.49068055 322.14278934 287.85954339 254.93906946 224.37192078 200.00000000 200.00000000 200.00000000 200.00000000 200.00000000 200.00000000 200.00000000 216.75720522 243.11605444 275.31563573 310.57105651 347.08501875 383.32601403 417.97156149 449.97263928 478.59902834 503.45006162 524.41596113 541.60623330 555.26878723 565.71255500 573.24236569 578.11288424 580.50261435 580.50261435 578.11288424 573.24236569 565.71255500 555.26878723 541.60623330 524.41596113 503.45006162 478.59902834 449.97263928 417.97156149 383.32601403 347.08501875 310.57105651 275.31563573 243.11605444 216.75720522 200.00000000 200.00000000 200.00000000 200.00000000 200.00000000 200.00000000 226.06007547 256.58571249 291.27900011 328.59445019 366.86545519 404.52083084 440.19913117 472.84250987 501.74977733 526.57750340 547.29108274 564.08322367 577.28226886 587.26737120 594.40077983 598.98145454 601.21844014 601.21844014 598.98145454 594.40077983 587.26737120 577.28226886 564.08322367 547.29108274 526.57750340 501.74977733 472.84250987 440.19913117 404.52083084 366.86545519 328.59445019 291.27900011 256.58571249 226.06007547 200.00000000 200.00000000 200.00000000 200.00000000 200.00000000 200.00000000 231.95818833 265.56253481 302.23567356 341.06793138 380.55809162 419.15175431 455.47827895 488.48398857 517.49465957 542.21308247 562.66276430 579.09849922 591.90746256 601.51956006 608.33775310 612.69141216 614.80982760 614.80982760 612.69141216 608.33775310 601.51956006 591.90746256 579.09849922 562.66276430 542.21308247 517.49465957 488.48398857 455.47827895 419.15175431 380.55809162 341.06793138 302.23567356 265.56253481 231.95818833 200.00000000 200.00000000 200.00000000 200.00000000 200.00000000 209.35853793 236.70275513 270.43346386 307.87893416 347.45354602 387.55709840 426.61579249 463.25238545 496.41721867 525.45199699 550.08526464 570.37213932 586.60058462 599.18881186 608.59323785 615.23782808 619.46737437 621.52124657 621.52124657 619.46737437 615.23782808 608.59323785 599.18881186 586.60058462 570.37213932 550.08526464 525.45199699 496.41721867 463.25238545 426.61579249 387.55709840 347.45354602 307.87893416 270.43346386 236.70275513 209.35853793 200.00000000 200.00000000 200.00000000 200.00000000 209.35853793 236.70275513 270.43346386 307.87893416 347.45354602 387.55709840 426.61579249 463.25238545 496.41721867 525.45199699 550.08526464 570.37213932 586.60058462 599.18881186 608.59323785 615.23782808 619.46737437 621.52124657 621.52124657 619.46737437 615.23782808 608.59323785 599.18881186 586.60058462 570.37213932 550.08526464 525.45199699 496.41721867 463.25238545 426.61579249 387.55709840 347.45354602 307.87893416 270.43346386 236.70275513 209.35853793 200.00000000 200.00000000 200.00000000 200.00000000 200.00000000 231.95818833 265.56253481 302.23567356 341.06793138 380.55809162 419.15175431 455.47827895 488.48398857 517.49465957 542.21308247 562.66276430 579.09849922 591.90746256 601.51956006 608.33775310 612.69141216 614.80982760 614.80982760 612.69141216 608.33775310 601.51956006 591.90746256 579.09849922 562.66276430 542.21308247 517.49465957 488.48398857 455.47827895 419.15175431 380.55809162 341.06793138 302.23567356 265.56253481 231.95818833 200.00000000 200.00000000 200.00000000 200.00000000 200.00000000 200.00000000 226.06007547 256.58571249 291.27900011 328.59445019 366.86545519 404.52083084 440.19913117 472.84250987 501.74977733 526.57750340 547.29108274 564.08322367 577.28226886 587.26737120 594.40077983 598.98145454 601.21844014 601.21844014 598.98145454 594.40077983 587.26737120 577.28226886 564.08322367 547.29108274 526.57750340 501.74977733 472.84250987 440.19913117 404.52083084 366.86545519 328.59445019 291.27900011 256.58571249 226.06007547 200.00000000 200.00000000 200.00000000 200.00000000 200.00000000 200.00000000 216.75720522 243.11605444 275.31563573 310.57105651 347.08501875 383.32601403 417.97156149 449.97263928 478.59902834 503.45006162 524.41596113 541.60623330 555.26878723 565.71255500 573.24236569 578.11288424 580.50261435 580.50261435 578.11288424 573.24236569 565.71255500 555.26878723 541.60623330 524.41596113 503.45006162 478.59902834 449.97263928 417.97156149 383.32601403 347.08501875 310.57105651 275.31563573 243.11605444 216.75720522 200.00000000 200.00000000 200.00000000 200.00000000 200.00000000 200.00000000 200.00000000 224.37192078 254.93906946 287.85954339 322.14278934 356.49068055 389.66482034 420.65317911 448.70145590 473.35197255 494.41530208 511.90615789 525.97873184 536.86006370 544.78637286 549.95610122 552.50642527 552.50642527 549.95610122 544.78637286 536.86006370 525.97873184 511.90615789 494.41530208 473.35197255 448.70145590 420.65317911 389.66482034 356.49068055 322.14278934 287.85954339 254.93906946 224.37192078 200.00000000 200.00000000 200.00000000 200.00000000 200.00000000 200.00000000 200.00000000 200.00000000 200.00000000 231.97679940 261.76422413 293.27903221 325.25879606 356.46950613 385.99413047 413.05109398 437.13817507 457.99751983 475.54416194 489.83394960 501.01269628 509.24651163 514.66787736 517.35927519 517.35927519 514.66787736 509.24651163 501.01269628 489.83394960 475.54416194 457.99751983 437.13817507 413.05109398 385.99413047 356.46950613 325.25879606 293.27903221 261.76422413 231.97679940 200.00000000 200.00000000 200.00000000 200.00000000 200.00000000 200.00000000 200.00000000 200.00000000 200.00000000 200.00000000 213.32741312 233.70749657 261.91445003 291.18455279 319.86415140 347.43195159 372.99340693 396.03863494 416.27545282 433.50452249 447.68546158 458.90611220 467.27932025 472.86082051 475.65467397 475.65467397 472.86082051 467.27932025 458.90611220 447.68546158 433.50452249 416.27545282 396.03863494 372.99340693 347.43195159 319.86415140 291.18455279 261.91445003 233.70749657 213.32741312 200.00000000 200.00000000 200.00000000 200.00000000 200.00000000 200.00000000 200.00000000 200.00000000 200.00000000 200.00000000 200.00000000 200.00000000 229.33902412 256.26089795 281.47899967 306.67583138 330.17368188 351.62583105 370.77655659 387.22647685 400.85091981 411.75533962 420.05687432 425.70491706 428.56731428 428.56731428 425.70491706 420.05687432 411.75533962 400.85091981 387.22647685 370.77655659 351.62583105 330.17368188 306.67583138 281.47899967 256.26089795 229.33902412 200.00000000 200.00000000 200.00000000 200.00000000 200.00000000 200.00000000 200.00000000 200.00000000 200.00000000 200.00000000 200.00000000 200.00000000 200.00000000 200.00000000 200.00000000 223.88928779 242.47006292 265.65421860 286.38954623 305.70729820 323.41167220 338.56342276 351.03655483 361.16270553 369.22871285 374.94792651 377.89784976 377.89784976 374.94792651 369.22871285 361.16270553 351.03655483 338.56342276 323.41167220 305.70729820 286.38954623 265.65421860 242.47006292 223.88928779 200.00000000 200.00000000 200.00000000 200.00000000 200.00000000 200.00000000 200.00000000 200.00000000 200.00000000 200.00000000 200.00000000 200.00000000 200.00000000 200.00000000 200.00000000 200.00000000 200.00000000 200.00000000 227.02643401 243.20487577 260.29668752 276.55108152 289.69856854 300.10848461 308.81552048 316.79998008 322.91917040 326.09837225 326.09837225 322.91917040 316.79998008 308.81552048 300.10848461 289.69856854 276.55108152 260.29668752 243.20487577 227.02643401 200.00000000 200.00000000 200.00000000 200.00000000 200.00000000 200.00000000 200.00000000 200.00000000 200.00000000 200.00000000 200.00000000 200.00000000 200.00000000 200.00000000 200.00000000 200.00000000 200.00000000 200.00000000 200.00000000 200.00000000 200.00000000 200.00000000 218.97488944 233.62258417 242.97970057 249.62205290 255.73970099 265.18461853 272.75099319 276.40359491 276.40359491 272.75099319 265.18461853 255.73970099 249.62205290 242.97970057 233.62258417 218.97488944 200.00000000 200.00000000 200.00000000 200.00000000 200.00000000 200.00000000 200.00000000 200.00000000 200.00000000 200.00000000 200.00000000 200.00000000 200.00000000 200.00000000 200.00000000 200.00000000 200.00000000 200.00000000 200.00000000 200.00000000 200.00000000 200.00000000 200.00000000 200.00000000 200.00000000 200.00000000 200.00000000 200.00000000 200.00000000 219.06876228 229.31150238 233.06066238 233.06066238 229.31150238 219.06876228 200.00000000 200.00000000 200.00000000 200.00000000 200.00000000 200.00000000 200.00000000 200.00000000 200.00000000 200.00000000 200.00000000 200.00000000 200.00000000 200.00000000 200.00000000 200.00000000 200.00000000 200.00000000 200.00000000 200.00000000 200.00000000 200.00000000 200.00000000 200.00000000 200.00000000 200.00000000 200.00000000 200.00000000 200.00000000 200.00000000 200.00000000 200.00000000 200.00000000 200.00000000 200.00000000 200.00000000 200.00000000 200.00000000 200.00000000 200.00000000 200.00000000 200.00000000 200.00000000 200.00000000 200.00000000 200.00000000 200.00000000 200.00000000 200.00000000 200.00000000 200.00000000 200.00000000 200.00000000 200.00000000 200.00000000 200.00000000 200.00000000 200.00000000 200.00000000 200.00000000 200.00000000 200.00000000 200.00000000 200.00000000 200.00000000 200.00000000 200.00000000 200.00000000 200.00000000 200.00000000 200.00000000 200.00000000 200.00000000 200.00000000 200.00000000 200.00000000 200.00000000 200.00000000 200.00000000 200.00000000 200.00000000 200.00000000 200.00000000 200.00000000 200.00000000 200.00000000 200.00000000 200.00000000 200.00000000 200.00000000 200.00000000 200.00000000 200.00000000 200.00000000 200.00000000 200.00000000 200.00000000 200.00000000 200.00000000 200.00000000 200.00000000 200.00000000 200.00000000 200.00000000 200.00000000 200.00000000 200.00000000 200.00000000 200.00000000 200.00000000 200.00000000 200.00000000 200.00000000 200.00000000 200.00000000 200.00000000 200.00000000 200.00000000 200.00000000 200.00000000 200.00000000 200.00000000 200.00000000 200.00000000 200.00000000 200.00000000 200.00000000 200.00000000 200.00000000 200.00000000 200.00000000 200.00000000 200.00000000 200.00000000 200.00000000 200.00000000 200.00000000 200.00000000 200.00000000 200.00000000 200.00000000 200.00000000 200.00000000 200.00000000 200.00000000 200.00000000 200.00000000 200.00000000 200.00000000 200.00000000 200.00000000 200.00000000 200.00000000 200.00000000 200.00000000 200.00000000 200.00000000 200.00000000 200.00000000 200.00000000 200.00000000 200.00000000 200.00000000 200.00000000 200.00000000 200.00000000 200.00000000 200.00000000 200.00000000 200.00000000 200.00000000 200.00000000 200.00000000 200.00000000 200.00000000 200.00000000 200.00000000 200.00000000 200.00000000 200.00000000 200.00000000 200.00000000 200.00000000 200.00000000 200.00000000 200.00000000 200.00000000 200.00000000 200.00000000 200.00000000 200.00000000 200.00000000 200.00000000 200.00000000 200.00000000 200.00000000 200.00000000 200.00000000 200.00000000 200.00000000 200.00000000 200.00000000 200.00000000 200.00000000 200.00000000 200.00000000 200.00000000 200.00000000 200.00000000 200.00000000 200.00000000 200.00000000 200.00000000 200.00000000 200.00000000 200.00000000 200.00000000 200.00000000 200.00000000 200.00000000 200.00000000 200.00000000 200.00000000 200.00000000 200.00000000 200.00000000 200.00000000 200.00000000 200.00000000 200.00000000 200.00000000 200.00000000 200.00000000 200.00000000 200.00000000 200.00000000 200.00000000 200.00000000 200.00000000 200.00000000 200.00000000 200.00000000 200.00000000 200.00000000 200.00000000 200.00000000 200.00000000 200.00000000 200.00000000 200.00000000 200.00000000 200.00000000 200.00000000 200.00000000 200.00000000 200.00000000 200.00000000 200.00000000 200.00000000 200.00000000 200.00000000 200.00000000 200.00000000 200.00000000 200.00000000 200.00000000 200.00000000 200.00000000 200.00000000 200.00000000 200.00000000 200.00000000 200.00000000 200.00000000 200.00000000 200.00000000 200.00000000 200.00000000 200.00000000 200.00000000 200.00000000 200.00000000 200.00000000 200.00000000 200.00000000 200.00000000 200.00000000 200.00000000 200.00000000 200.00000000 200.00000000 200.00000000 200.00000000 200.00000000 200.00000000 200.00000000 200.00000000 200.00000000 200.00000000 200.00000000 200.00000000 200.00000000 200.00000000 200.00000000 200.00000000 200.00000000 200.00000000 200.00000000 200.00000000 200.00000000 200.00000000 200.00000000 200.00000000 200.00000000 200.00000000 200.00000000 200.00000000 200.00000000 200.00000000 200.00000000 200.00000000 200.00000000 200.00000000 200.00000000 200.00000000 200.00000000 200.00000000 200.00000000 200.00000000 200.00000000 200.00000000 200.00000000 200.00000000 200.00000000 200.00000000 200.00000000 200.00000000 