# vtk DataFile Version 3.0
VTK - Matlab export
ASCII
DATASET STRUCTURED_POINTS
DIMENSIONS 40 40 1
SPACING 1 1 1
ORIGIN 0 0 0
POINT_DATA 1600
SCALARS lambda-2 float 1
LOOKUP_TABLE default
8.35311101 8.35311101 8.35311101 8.35311101 8.35311101 8.35311101 8.35311101 8.35311101 8.35311101 8.35311101 8.35311101 8.35311101 8.35311101 8.35311101 8.35311101 8.35311101 8.35311101 8.35311101 8.35311101 8.35311101 8.35311101 8.35311101 8.35311101 8.35311101 8.35311101 8.35311101 8.35311101 8.35311101 8.35311101 8.35311101 8.35311101 8.35311101 8.35311101 8.35311101 8.35311101 8.35311101 8.35311101 8.35311101 8.35311101 8.35311101 8.35311101 8.35311101 8.35311101 8.35311101 8.35311101 8.35311101 8.35311101 8.35311101 8.35311101 8.35311101 8.35311101 8.35311101 8.35311101 8.35311101 8.35311101 8.35311101 8.35311101 8.35311101 8.35311101 8.35311101 8.35311101 8.35311101 8.35311101 8.35311101 8.35311101 8.35311101 8.35311101 8.35311101 8.35311101 8.35311101 8.35311101 8.35311101 8.35311101 8.35311101 8.35311101 8.35311101 8.35311101 8.35311101 8.35311101 8.35311101 8.35311101 8.35311101 8.35311101 8.35311101 8.35311101 8.35311101 8.35311101 8.35311101 8.35311101 8.35311101 8.35311101 8.35311101 8.35311101 8.35311101 8.35311101 8.35311101 8.35311101 8.35311101 8.35311101 8.35311101 8.35311101 8.35311101 8.35311101 8.35311101 8.35311101 8.35311101 8.35311101 8.35311101 8.35311101 8.35311101 8.35311101 8.35311101 8.35311101 8.35311101 8.35311101 8.35311101 8.35311101 8.35311101 8.35311101 8.35311101 8.35311101 8.35311101 8.35311101 8.35311101 8.35311101 8.35311101 8.35311101 8.35311101 8.35311101 8.35311101 8.35311101 8.35311101 8.35311101 8.35311101 8.35311101 8.35311101 8.35311101 8.35311101 8.35311101 8.35311101 8.35311101 8.35311101 8.35311101 8.35311101 8.35311101 8.35311101 8.35311101 8.35311101 8.35311101 8.35311101 8.35311101 8.35311101 8.35311101 8.35311101 8.35311101 8.35311101 8.35311101 8.35311101 8.35311101 8.35311101 8.35311101 8.35311101 8.35311101 8.35311101 8.35311101 8.35311101 8.35311101 8.35311101 8.35311101 8.35311101 8.35311101 8.35311101 8.35311101 8.35311101 8.35311101 8.35311101 8.35311101 8.35311101 8.35311101 8.35311101 8.35311101 8.35311101 8.35311101 8.35311101 8.35311101 8.35311101 8.35311101 8.35311101 8.35311101 8.35311101 8.35311101 8.35311101 8.35311101 8.35311101 8.35311101 8.35311101 8.35311101 8.35311101 8.35311101 8.35311101 8.35311101 8.35311101 8.35311101 8.35311101 8.35311101 8.35311101 8.35311101 8.35311101 8.35311101 8.35311101 8.35311101 8.35311101 8.35311101 8.35311101 8.35311101 8.35311101 8.35311101 8.35311101 8.35311101 8.35311101 8.35311101 8.35311101 8.35311101 8.35311101 8.35311101 8.35311101 8.35311101 8.35311101 8.35311101 8.35311101 8.35311101 8.35311101 8.35311101 8.35311101 8.35311101 8.35311101 8.35311101 8.35311101 8.35311101 8.35311101 8.35311101 8.35311101 8.35311101 8.35311101 8.35311101 8.35311101 8.35311101 8.35311101 8.35311101 8.35311101 8.35311101 8.35311101 8.35311101 8.35311101 8.35311101 8.35311101 8.35311101 8.35311101 8.35311101 8.35311101 8.35311101 8.35311101 8.35311101 8.35311101 8.35311101 8.35311101 8.35311101 8.35311101 8.35311101 8.35311101 8.35311101 8.35311101 8.35311101 8.35311101 8.35311101 8.35311101 8.35311101 8.35311101 8.35311101 8.35311101 8.35311101 8.35311101 8.35311101 8.35311101 8.35311101 8.35311101 8.35311101 8.35311101 8.35311101 8.35311101 8.35311101 8.35311101 8.35311101 8.35311101 8.35311101 8.35311101 8.35311101 8.35311101 8.35311101 8.35311101 8.35311101 8.35311101 8.35311101 8.35311101 8.35311101 8.35311101 8.35311101 8.35311101 8.35311101 8.35311101 8.35311101 8.35311101 8.35311101 8.35311101 8.35311101 8.35311101 8.35311101 8.35311101 8.35311101 8.35311101 8.35311101 8.35311101 8.35311101 8.35311101 8.35311101 8.35311101 8.35311101 8.35311101 8.35311101 8.35311101 8.35311101 8.35311101 8.35311101 8.35311101 8.35311101 8.35311101 8.35311101 8.34561550 8.34132975 8.33968686 8.33968686 8.34132975 8.34561550 8.35311101 8.35311101 8.35311101 8.35311101 8.35311101 8.35311101 8.35311101 8.35311101 8.35311101 8.35311101 8.35311101 8.35311101 8.35311101 8.35311101 8.35311101 8.35311101 8.35311101 8.35311101 8.35311101 8.35311101 8.35311101 8.35311101 8.35311101 8.35311101 8.35311101 8.35311101 8.35311101 8.35311101 8.35311101 8.34520689 8.33934226 8.33606298 8.33415469 8.33243037 8.32905202 8.32611029 8.32463955 8.32463955 8.32611029 8.32905202 8.33243037 8.33415469 8.33606298 8.33934226 8.34520689 8.35311101 8.35311101 8.35311101 8.35311101 8.35311101 8.35311101 8.35311101 8.35311101 8.35311101 8.35311101 8.35311101 8.35311101 8.35311101 8.35311101 8.35311101 8.35311101 8.35311101 8.35311101 8.35311101 8.35311101 8.35311101 8.35311101 8.34144450 8.33515535 8.32910223 8.32393329 8.32055271 8.31853298 8.31703708 8.31531576 8.31375101 8.31288059 8.31288059 8.31375101 8.31531576 8.31703708 8.31853298 8.32055271 8.32393329 8.32910223 8.33515535 8.34144450 8.35311101 8.35311101 8.35311101 8.35311101 8.35311101 8.35311101 8.35311101 8.35311101 8.35311101 8.35311101 8.35311101 8.35311101 8.35311101 8.35311101 8.35311101 8.35311101 8.35311101 8.35311101 8.34225064 8.33474282 8.32619790 8.31997385 8.31539824 8.31218011 8.31036580 8.30958597 8.30925187 8.30889683 8.30849711 8.30824020 8.30824020 8.30849711 8.30889683 8.30925187 8.30958597 8.31036580 8.31218011 8.31539824 8.31997385 8.32619790 8.33474282 8.34225064 8.35311101 8.35311101 8.35311101 8.35311101 8.35311101 8.35311101 8.35311101 8.35311101 8.35311101 8.35311101 8.35311101 8.35311101 8.35311101 8.35311101 8.35311101 8.33947687 8.32844049 8.32017301 8.31381824 8.30984723 8.30784261 8.30725359 8.30766684 8.30863307 8.30969672 8.31053136 8.31103838 8.31126509 8.31126509 8.31103838 8.31053136 8.30969672 8.30863307 8.30766684 8.30725359 8.30784261 8.30984723 8.31381824 8.32017301 8.32844049 8.33947687 8.35311101 8.35311101 8.35311101 8.35311101 8.35311101 8.35311101 8.35311101 8.35311101 8.35311101 8.35311101 8.35311101 8.35311101 8.34609265 8.33650993 8.32509320 8.31594942 8.30998364 8.30690236 8.30626420 8.30733593 8.30937821 8.31182584 8.31425692 8.31636374 8.31796380 8.31900331 8.31950700 8.31950700 8.31900331 8.31796380 8.31636374 8.31425692 8.31182584 8.30937821 8.30733593 8.30626420 8.30690236 8.30998364 8.31594942 8.32509320 8.33650993 8.34609265 8.35311101 8.35311101 8.35311101 8.35311101 8.35311101 8.35311101 8.35311101 8.35311101 8.35311101 8.35311101 8.33627797 8.32337051 8.31345028 8.30738555 8.30514320 8.30592237 8.30869051 8.31244757 8.31641988 8.32012101 8.32328907 8.32580485 8.32763921 8.32881924 8.32939254 8.32939254 8.32881924 8.32763921 8.32580485 8.32328907 8.32012101 8.31641988 8.31244757 8.30869051 8.30592237 8.30514320 8.30738555 8.31345028 8.32337051 8.33627797 8.35311101 8.35311101 8.35311101 8.35311101 8.35311101 8.35311101 8.35311101 8.35311101 8.35311101 8.33911483 8.32423896 8.31256883 8.30555709 8.30341793 8.30524835 8.30958622 8.31501239 8.32047259 8.32535156 8.32939307 8.33256172 8.33492456 8.33657995 8.33762248 8.33812440 8.33812440 8.33762248 8.33657995 8.33492456 8.33256172 8.32939307 8.32535156 8.32047259 8.31501239 8.30958622 8.30524835 8.30341793 8.30555709 8.31256883 8.32423896 8.33911483 8.35311101 8.35311101 8.35311101 8.35311101 8.35311101 8.35311101 8.35311101 8.34258958 8.32800250 8.31424023 8.30492301 8.30144963 8.30328437 8.30868822 8.31566631 8.32265838 8.32876959 8.33367254 8.33739062 8.34010124 8.34201048 8.34329467 8.34408298 8.34445747 8.34445747 8.34408298 8.34329467 8.34201048 8.34010124 8.33739062 8.33367254 8.32876959 8.32265838 8.31566631 8.30868822 8.30328437 8.30144963 8.30492301 8.31424023 8.32800250 8.34258958 8.35311101 8.35311101 8.35311101 8.35311101 8.35311101 8.35311101 8.33665031 8.32030742 8.30731389 8.30040710 8.30023585 8.30538478 8.31339730 8.32195705 8.32956418 8.33559762 8.34003970 8.34315717 8.34527981 8.34669220 8.34760193 8.34814430 8.34839779 8.34839779 8.34814430 8.34760193 8.34669220 8.34527981 8.34315717 8.34003970 8.33559762 8.32956418 8.32195705 8.31339730 8.30538478 8.30023585 8.30040710 8.30731389 8.32030742 8.33665031 8.35311101 8.35311101 8.35311101 8.35311101 8.35311101 8.35311101 8.33293919 8.31548432 8.30320097 8.29823620 8.30053557 8.30795842 8.31755207 8.32686195 8.33453368 8.34020842 8.34411164 8.34667480 8.34831386 8.34934558 8.34998108 8.35034817 8.35051662 8.35051662 8.35034817 8.34998108 8.34934558 8.34831386 8.34667480 8.34411164 8.34020842 8.33453368 8.32686195 8.31755207 8.30795842 8.30053557 8.29823620 8.30320097 8.31548432 8.33293919 8.35311101 8.35311101 8.35311101 8.35311101 8.35311101 8.34691023 8.32985020 8.31291827 8.30129212 8.29744795 8.30105957 8.30961508 8.31992302 8.32949295 8.33707975 8.34247940 8.34604693 8.34829340 8.34967058 8.35050377 8.35099998 8.35127956 8.35140595 8.35140595 8.35127956 8.35099998 8.35050377 8.34967058 8.34829340 8.34604693 8.34247940 8.33707975 8.32949295 8.31992302 8.30961508 8.30105957 8.29744795 8.30129212 8.31291827 8.32985020 8.34691023 8.35311101 8.35311101 8.35311101 8.35311101 8.34691023 8.32985020 8.31291827 8.30129212 8.29744795 8.30105957 8.30961508 8.31992302 8.32949295 8.33707975 8.34247940 8.34604693 8.34829340 8.34967058 8.35050377 8.35099998 8.35127956 8.35140595 8.35140595 8.35127956 8.35099998 8.35050377 8.34967058 8.34829340 8.34604693 8.34247940 8.33707975 8.32949295 8.31992302 8.30961508 8.30105957 8.29744795 8.30129212 8.31291827 8.32985020 8.34691023 8.35311101 8.35311101 8.35311101 8.35311101 8.35311101 8.33293919 8.31548432 8.30320097 8.29823620 8.30053557 8.30795842 8.31755207 8.32686195 8.33453368 8.34020842 8.34411164 8.34667480 8.34831386 8.34934558 8.34998108 8.35034817 8.35051662 8.35051662 8.35034817 8.34998108 8.34934558 8.34831386 8.34667480 8.34411164 8.34020842 8.33453368 8.32686195 8.31755207 8.30795842 8.30053557 8.29823620 8.30320097 8.31548432 8.33293919 8.35311101 8.35311101 8.35311101 8.35311101 8.35311101 8.35311101 8.33665031 8.32030742 8.30731389 8.30040710 8.30023585 8.30538478 8.31339730 8.32195705 8.32956418 8.33559762 8.34003970 8.34315717 8.34527981 8.34669220 8.34760193 8.34814430 8.34839779 8.34839779 8.34814430 8.34760193 8.34669220 8.34527981 8.34315717 8.34003970 8.33559762 8.32956418 8.32195705 8.31339730 8.30538478 8.30023585 8.30040710 8.30731389 8.32030742 8.33665031 8.35311101 8.35311101 8.35311101 8.35311101 8.35311101 8.35311101 8.34258958 8.32800250 8.31424023 8.30492301 8.30144963 8.30328437 8.30868822 8.31566631 8.32265838 8.32876959 8.33367254 8.33739062 8.34010124 8.34201048 8.34329467 8.34408298 8.34445747 8.34445747 8.34408298 8.34329467 8.34201048 8.34010124 8.33739062 8.33367254 8.32876959 8.32265838 8.31566631 8.30868822 8.30328437 8.30144963 8.30492301 8.31424023 8.32800250 8.34258958 8.35311101 8.35311101 8.35311101 8.35311101 8.35311101 8.35311101 8.35311101 8.33911483 8.32423896 8.31256883 8.30555709 8.30341793 8.30524835 8.30958622 8.31501239 8.32047259 8.32535156 8.32939307 8.33256172 8.33492456 8.33657995 8.33762248 8.33812440 8.33812440 8.33762248 8.33657995 8.33492456 8.33256172 8.32939307 8.32535156 8.32047259 8.31501239 8.30958622 8.30524835 8.30341793 8.30555709 8.31256883 8.32423896 8.33911483 8.35311101 8.35311101 8.35311101 8.35311101 8.35311101 8.35311101 8.35311101 8.35311101 8.35311101 8.33627797 8.32337051 8.31345028 8.30738555 8.30514320 8.30592237 8.30869051 8.31244757 8.31641988 8.32012101 8.32328907 8.32580485 8.32763921 8.32881924 8.32939254 8.32939254 8.32881924 8.32763921 8.32580485 8.32328907 8.32012101 8.31641988 8.31244757 8.30869051 8.30592237 8.30514320 8.30738555 8.31345028 8.32337051 8.33627797 8.35311101 8.35311101 8.35311101 8.35311101 8.35311101 8.35311101 8.35311101 8.35311101 8.35311101 8.35311101 8.34609265 8.33650993 8.32509320 8.31594942 8.30998364 8.30690236 8.30626420 8.30733593 8.30937821 8.31182584 8.31425692 8.31636374 8.31796380 8.31900331 8.31950700 8.31950700 8.31900331 8.31796380 8.31636374 8.31425692 8.31182584 8.30937821 8.30733593 8.30626420 8.30690236 8.30998364 8.31594942 8.32509320 8.33650993 8.34609265 8.35311101 8.35311101 8.35311101 8.35311101 8.35311101 8.35311101 8.35311101 8.35311101 8.35311101 8.35311101 8.35311101 8.35311101 8.33947687 8.32844049 8.32017301 8.31381824 8.30984723 8.30784261 8.30725359 8.30766684 8.30863307 8.30969672 8.31053136 8.31103838 8.31126509 8.31126509 8.31103838 8.31053136 8.30969672 8.30863307 8.30766684 8.30725359 8.30784261 8.30984723 8.31381824 8.32017301 8.32844049 8.33947687 8.35311101 8.35311101 8.35311101 8.35311101 8.35311101 8.35311101 8.35311101 8.35311101 8.35311101 8.35311101 8.35311101 8.35311101 8.35311101 8.35311101 8.35311101 8.34225064 8.33474282 8.32619790 8.31997385 8.31539824 8.31218011 8.31036580 8.30958597 8.30925187 8.30889683 8.30849711 8.30824020 8.30824020 8.30849711 8.30889683 8.30925187 8.30958597 8.31036580 8.31218011 8.31539824 8.31997385 8.32619790 8.33474282 8.34225064 8.35311101 8.35311101 8.35311101 8.35311101 8.35311101 8.35311101 8.35311101 8.35311101 8.35311101 8.35311101 8.35311101 8.35311101 8.35311101 8.35311101 8.35311101 8.35311101 8.35311101 8.35311101 8.34144450 8.33515535 8.32910223 8.32393329 8.32055271 8.31853298 8.31703708 8.31531576 8.31375101 8.31288059 8.31288059 8.31375101 8.31531576 8.31703708 8.31853298 8.32055271 8.32393329 8.32910223 8.33515535 8.34144450 8.35311101 8.35311101 8.35311101 8.35311101 8.35311101 8.35311101 8.35311101 8.35311101 8.35311101 8.35311101 8.35311101 8.35311101 8.35311101 8.35311101 8.35311101 8.35311101 8.35311101 8.35311101 8.35311101 8.35311101 8.35311101 8.35311101 8.34520689 8.33934226 8.33606298 8.33415469 8.33243037 8.32905202 8.32611029 8.32463955 8.32463955 8.32611029 8.32905202 8.33243037 8.33415469 8.33606298 8.33934226 8.34520689 8.35311101 8.35311101 8.35311101 8.35311101 8.35311101 8.35311101 8.35311101 8.35311101 8.35311101 8.35311101 8.35311101 8.35311101 8.35311101 8.35311101 8.35311101 8.35311101 8.35311101 8.35311101 8.35311101 8.35311101 8.35311101 8.35311101 8.35311101 8.35311101 8.35311101 8.35311101 8.35311101 8.35311101 8.35311101 8.34561550 8.34132975 8.33968686 8.33968686 8.34132975 8.34561550 8.35311101 8.35311101 8.35311101 8.35311101 8.35311101 8.35311101 8.35311101 8.35311101 8.35311101 8.35311101 8.35311101 8.35311101 8.35311101 8.35311101 8.35311101 8.35311101 8.35311101 8.35311101 8.35311101 8.35311101 8.35311101 8.35311101 8.35311101 8.35311101 8.35311101 8.35311101 8.35311101 8.35311101 8.35311101 8.35311101 8.35311101 8.35311101 8.35311101 8.35311101 8.35311101 8.35311101 8.35311101 8.35311101 8.35311101 8.35311101 8.35311101 8.35311101 8.35311101 8.35311101 8.35311101 8.35311101 8.35311101 8.35311101 8.35311101 8.35311101 8.35311101 8.35311101 8.35311101 8.35311101 8.35311101 8.35311101 8.35311101 8.35311101 8.35311101 8.35311101 8.35311101 8.35311101 8.35311101 8.35311101 8.35311101 8.35311101 8.35311101 8.35311101 8.35311101 8.35311101 8.35311101 8.35311101 8.35311101 8.35311101 8.35311101 8.35311101 8.35311101 8.35311101 8.35311101 8.35311101 8.35311101 8.35311101 8.35311101 8.35311101 8.35311101 8.35311101 8.35311101 8.35311101 8.35311101 8.35311101 8.35311101 8.35311101 8.35311101 8.35311101 8.35311101 8.35311101 8.35311101 8.35311101 8.35311101 8.35311101 8.35311101 8.35311101 8.35311101 8.35311101 8.35311101 8.35311101 8.35311101 8.35311101 8.35311101 8.35311101 8.35311101 8.35311101 8.35311101 8.35311101 8.35311101 8.35311101 8.35311101 8.35311101 8.35311101 8.35311101 8.35311101 8.35311101 8.35311101 8.35311101 8.35311101 8.35311101 8.35311101 8.35311101 8.35311101 8.35311101 8.35311101 8.35311101 8.35311101 8.35311101 8.35311101 8.35311101 8.35311101 8.35311101 8.35311101 8.35311101 8.35311101 8.35311101 8.35311101 8.35311101 8.35311101 8.35311101 8.35311101 8.35311101 8.35311101 8.35311101 8.35311101 8.35311101 8.35311101 8.35311101 8.35311101 8.35311101 8.35311101 8.35311101 8.35311101 8.35311101 8.35311101 8.35311101 8.35311101 8.35311101 8.35311101 8.35311101 8.35311101 8.35311101 8.35311101 8.35311101 8.35311101 8.35311101 8.35311101 8.35311101 8.35311101 8.35311101 8.35311101 8.35311101 8.35311101 8.35311101 8.35311101 8.35311101 8.35311101 8.35311101 8.35311101 8.35311101 8.35311101 8.35311101 8.35311101 8.35311101 8.35311101 8.35311101 8.35311101 8.35311101 8.35311101 8.35311101 8.35311101 8.35311101 8.35311101 8.35311101 8.35311101 8.35311101 8.35311101 8.35311101 8.35311101 8.35311101 8.35311101 8.35311101 8.35311101 8.35311101 8.35311101 8.35311101 8.35311101 8.35311101 8.35311101 8.35311101 8.35311101 8.35311101 8.35311101 8.35311101 8.35311101 8.35311101 8.35311101 8.35311101 8.35311101 8.35311101 8.35311101 8.35311101 8.35311101 8.35311101 8.35311101 8.35311101 8.35311101 8.35311101 8.35311101 8.35311101 8.35311101 8.35311101 8.35311101 8.35311101 8.35311101 8.35311101 8.35311101 8.35311101 8.35311101 8.35311101 8.35311101 8.35311101 8.35311101 8.35311101 8.35311101 8.35311101 8.35311101 8.35311101 8.35311101 8.35311101 8.35311101 8.35311101 8.35311101 8.35311101 8.35311101 8.35311101 8.35311101 8.35311101 8.35311101 8.35311101 8.35311101 8.35311101 8.35311101 8.35311101 8.35311101 8.35311101 8.35311101 8.35311101 8.35311101 8.35311101 8.35311101 8.35311101 8.35311101 8.35311101 8.35311101 8.35311101 8.35311101 8.35311101 8.35311101 8.35311101 8.35311101 8.35311101 8.35311101 8.35311101 8.35311101 8.35311101 8.35311101 8.35311101 8.35311101 8.35311101 8.35311101 8.35311101 8.35311101 8.35311101 8.35311101 8.35311101 8.35311101 8.35311101 8.35311101 8.35311101 8.35311101 8.35311101 8.35311101 8.35311101 8.35311101 8.35311101 8.35311101 8.35311101 8.35311101 8.35311101 8.35311101 8.35311101 8.35311101 8.35311101 8.35311101 8.35311101 8.35311101 8.35311101 8.35311101 8.35311101 8.35311101 8.35311101 8.35311101 8.35311101 8.35311101 8.35311101 8.35311101 8.35311101 8.35311101 8.35311101 8.35311101 