# vtk DataFile Version 3.0
VTK - Matlab export
ASCII
DATASET STRUCTURED_POINTS
DIMENSIONS 40 40 1
SPACING 1 1 1
ORIGIN 0 0 0
POINT_DATA 1600
SCALARS Temperature float 1
LOOKUP_TABLE default
200.00000000 200.00000000 200.00000000 200.00000000 200.00000000 200.00000000 200.00000000 200.00000000 200.00000000 200.00000000 200.00000000 200.00000000 200.00000000 200.00000000 200.00000000 200.00000000 200.00000000 200.00000000 200.00000000 200.00000000 200.00000000 200.00000000 200.00000000 200.00000000 200.00000000 200.00000000 200.00000000 200.00000000 200.00000000 200.00000000 200.00000000 200.00000000 200.00000000 200.00000000 200.00000000 200.00000000 200.00000000 200.00000000 200.00000000 200.00000000 200.00000000 200.00000000 200.00000000 200.00000000 200.00000000 200.00000000 200.00000000 200.00000000 200.00000000 200.00000000 200.00000000 200.00000000 200.00000000 200.00000000 200.00000000 200.00000000 200.00000000 200.00000000 200.00000000 200.00000000 200.00000000 200.00000000 200.00000000 200.00000000 200.00000000 200.00000000 200.00000000 200.00000000 200.00000000 200.00000000 200.00000000 200.00000000 200.00000000 200.00000000 200.00000000 200.00000000 200.00000000 200.00000000 200.00000000 200.00000000 200.00000000 200.00000000 200.00000000 200.00000000 200.00000000 200.00000000 200.00000000 200.00000000 200.00000000 200.00000000 200.00000000 200.00000000 200.00000000 200.00000000 200.00000000 200.00000000 200.00000000 200.00000000 200.00000000 200.00000000 200.00000000 200.00000000 200.00000000 200.00000000 200.00000000 200.00000000 200.00000000 200.00000000 200.00000000 200.00000000 200.00000000 200.00000000 200.00000000 200.00000000 200.00000000 200.00000000 200.00000000 200.00000000 200.00000000 200.00000000 200.00000000 200.00000000 200.00000000 200.00000000 200.00000000 200.00000000 200.00000000 200.00000000 200.00000000 200.00000000 200.00000000 200.00000000 200.00000000 200.00000000 200.00000000 200.00000000 200.00000000 200.00000000 200.00000000 200.00000000 200.00000000 200.00000000 200.00000000 200.00000000 200.00000000 200.00000000 200.00000000 200.00000000 200.00000000 200.00000000 200.00000000 200.00000000 200.00000000 200.00000000 200.00000000 200.00000000 200.00000000 200.00000000 200.00000000 200.00000000 200.00000000 200.00000000 200.00000000 200.00000000 200.00000000 200.00000000 200.00000000 200.00000000 200.00000000 200.00000000 200.00000000 200.00000000 200.00000000 200.00000000 200.00000000 200.00000000 200.00000000 200.00000000 200.00000000 200.00000000 200.00000000 200.00000000 200.00000000 200.00000000 200.00000000 200.00000000 200.00000000 200.00000000 200.00000000 200.00000000 200.00000000 200.00000000 200.00000000 200.00000000 200.00000000 200.00000000 200.00000000 200.00000000 200.00000000 200.00000000 200.00000000 200.00000000 200.00000000 200.00000000 200.00000000 200.00000000 200.00000000 200.00000000 200.00000000 200.00000000 200.00000000 200.00000000 200.00000000 200.00000000 200.00000000 200.00000000 200.00000000 200.00000000 200.00000000 200.00000000 200.00000000 200.00000000 200.00000000 200.00000000 200.00000000 200.00000000 200.00000000 200.00000000 200.00000000 200.00000000 200.00000000 200.00000000 200.00000000 200.00000000 200.00000000 200.00000000 200.00000000 200.00000000 200.00000000 200.00000000 200.00000000 200.00000000 200.00000000 200.00000000 200.00000000 200.00000000 200.00000000 200.00000000 200.00000000 200.00000000 200.00000000 200.00000000 200.00000000 200.00000000 200.00000000 200.00000000 200.00000000 200.00000000 200.00000000 200.00000000 200.00000000 200.00000000 200.00000000 200.00000000 200.00000000 200.00000000 200.00000000 200.00000000 200.00000000 200.00000000 200.00000000 200.00000000 200.00000000 200.00000000 200.00000000 200.00000000 200.00000000 200.00000000 200.00000000 200.00000000 200.00000000 200.00000000 200.00000000 200.00000000 200.00000000 200.00000000 200.00000000 200.00000000 200.00000000 200.00000000 200.00000000 200.00000000 200.00000000 200.00000000 200.00000000 200.00000000 200.00000000 200.00000000 200.00000000 200.00000000 200.00000000 200.00000000 200.00000000 200.00000000 200.00000000 200.00000000 200.00000000 200.00000000 200.00000000 200.00000000 200.00000000 200.00000000 200.00000000 200.00000000 200.00000000 200.00000000 200.00000000 200.00000000 200.00000000 200.00000000 200.00000000 200.00000000 200.00000000 200.00000000 200.00000000 200.00000000 200.00000000 200.00000000 200.00000000 200.00000000 200.00000000 200.00000000 200.00000000 200.00000000 200.00000000 200.00000000 200.00000000 226.34872004 240.55097545 245.75762216 245.75762216 240.55097545 226.34872004 200.00000000 200.00000000 200.00000000 200.00000000 200.00000000 200.00000000 200.00000000 200.00000000 200.00000000 200.00000000 200.00000000 200.00000000 200.00000000 200.00000000 200.00000000 200.00000000 200.00000000 200.00000000 200.00000000 200.00000000 200.00000000 200.00000000 200.00000000 200.00000000 200.00000000 200.00000000 200.00000000 200.00000000 200.00000000 226.66548148 247.05774777 259.84689003 268.72709346 276.86486196 289.71320199 300.06477551 305.06354037 305.06354037 300.06477551 289.71320199 276.86486196 268.72709346 259.84689003 247.05774777 226.66548148 200.00000000 200.00000000 200.00000000 200.00000000 200.00000000 200.00000000 200.00000000 200.00000000 200.00000000 200.00000000 200.00000000 200.00000000 200.00000000 200.00000000 200.00000000 200.00000000 200.00000000 200.00000000 200.00000000 200.00000000 200.00000000 200.00000000 238.47897606 261.08931038 284.61898301 306.67193431 324.12577876 337.63183585 348.80289211 359.14974704 367.14689861 371.31019232 371.31019232 367.14689861 359.14974704 348.80289211 337.63183585 324.12577876 306.67193431 284.61898301 261.08931038 238.47897606 200.00000000 200.00000000 200.00000000 200.00000000 200.00000000 200.00000000 200.00000000 200.00000000 200.00000000 200.00000000 200.00000000 200.00000000 200.00000000 200.00000000 200.00000000 200.00000000 200.00000000 200.00000000 234.61108625 260.98857630 293.38705962 321.63814894 347.30790258 370.29419061 389.45866087 404.83651400 417.10972663 426.85925005 433.79508319 437.37893060 437.37893060 433.79508319 426.85925005 417.10972663 404.83651400 389.45866087 370.29419061 347.30790258 321.63814894 293.38705962 260.98857630 234.61108625 200.00000000 200.00000000 200.00000000 200.00000000 200.00000000 200.00000000 200.00000000 200.00000000 200.00000000 200.00000000 200.00000000 200.00000000 200.00000000 200.00000000 200.00000000 242.97070680 281.60645455 316.77164410 350.89434444 381.65063911 408.76235655 432.16569006 451.61162218 467.23053092 479.44270696 488.62452735 494.84398525 497.99150061 497.99150061 494.84398525 488.62452735 479.44270696 467.23053092 451.61162218 432.16569006 408.76235655 381.65063911 350.89434444 316.77164410 281.60645455 242.97070680 200.00000000 200.00000000 200.00000000 200.00000000 200.00000000 200.00000000 200.00000000 200.00000000 200.00000000 200.00000000 200.00000000 200.00000000 220.01301123 250.11836989 290.93502734 332.04785875 370.83807806 406.60278039 438.29529467 465.56976014 488.46296706 507.13831188 521.93208747 533.28419954 541.58197226 547.04904651 549.77028112 549.77028112 547.04904651 541.58197226 533.28419954 521.93208747 507.13831188 488.46296706 465.56976014 438.29529467 406.60278039 370.83807806 332.04785875 290.93502734 250.11836989 220.01301123 200.00000000 200.00000000 200.00000000 200.00000000 200.00000000 200.00000000 200.00000000 200.00000000 200.00000000 200.00000000 248.21588459 292.07516450 336.94437137 380.61062609 421.16963138 457.48752813 488.87427359 515.19225662 536.69300144 553.82070028 567.11239287 577.10846316 584.26207885 588.88612857 591.15907191 591.15907191 588.88612857 584.26207885 577.10846316 567.11239287 553.82070028 536.69300144 515.19225662 488.87427359 457.48752813 421.16963138 380.61062609 336.94437137 292.07516450 248.21588459 200.00000000 200.00000000 200.00000000 200.00000000 200.00000000 200.00000000 200.00000000 200.00000000 200.00000000 237.32738533 283.22752726 331.12285298 378.89102126 424.25796915 465.42573823 501.31012156 531.48418887 556.08392834 575.61773452 590.76590689 602.23752749 610.67474309 616.59252594 620.35507645 622.18474482 622.18474482 620.35507645 616.59252594 610.67474309 602.23752749 590.76590689 575.61773452 556.08392834 531.48418887 501.31012156 465.42573823 424.25796915 378.89102126 331.12285298 283.22752726 237.32738533 200.00000000 200.00000000 200.00000000 200.00000000 200.00000000 200.00000000 200.00000000 226.02221563 266.36827031 314.39537338 364.96207895 414.65896281 460.89431682 501.88388593 536.69825977 565.17453440 587.72925075 605.11957418 618.22325088 627.88301493 634.81696288 639.57959174 642.55849981 643.99203280 643.99203280 642.55849981 639.57959174 634.81696288 627.88301493 618.22325088 605.11957418 587.72925075 565.17453440 536.69825977 501.88388593 460.89431682 414.65896281 364.96207895 314.39537338 266.36827031 226.02221563 200.00000000 200.00000000 200.00000000 200.00000000 200.00000000 200.00000000 240.58814533 287.33353973 338.78952675 391.62346677 442.60463741 489.14525398 529.55075298 563.07927439 589.81561773 610.42453915 625.87102247 637.18347237 645.29735142 650.97710534 654.79498576 657.14344347 658.26170460 658.26170460 657.14344347 654.79498576 650.97710534 645.29735142 637.18347237 625.87102247 610.42453915 589.81561773 563.07927439 529.55075298 489.14525398 442.60463741 391.62346677 338.78952675 287.33353973 240.58814533 200.00000000 200.00000000 200.00000000 200.00000000 200.00000000 200.00000000 249.86662120 301.32665218 355.48879628 409.93649513 461.68807490 508.24457046 548.02190309 580.44252163 605.78478795 624.89745596 638.89227504 648.89718255 655.90339286 660.69854832 663.85902442 665.77347673 666.67621543 666.67621543 665.77347673 663.85902442 660.69854832 655.90339286 648.89718255 638.89227504 624.89745596 605.78478795 580.44252163 548.02190309 508.24457046 461.68807490 409.93649513 355.48879628 301.32665218 249.86662120 200.00000000 200.00000000 200.00000000 200.00000000 200.00000000 214.69328193 257.36087825 308.93504147 364.07532062 419.26145551 471.35084558 517.85054374 557.23654051 589.02415084 613.59740069 631.90252444 645.12661551 654.44651647 660.87891062 665.22019296 668.04609730 669.74107544 670.53527274 670.53527274 669.74107544 668.04609730 665.22019296 660.87891062 654.44651647 645.12661551 631.90252444 613.59740069 589.02415084 557.23654051 517.85054374 471.35084558 419.26145551 364.07532062 308.93504147 257.36087825 214.69328193 200.00000000 200.00000000 200.00000000 200.00000000 214.69328193 257.36087825 308.93504147 364.07532062 419.26145551 471.35084558 517.85054374 557.23654051 589.02415084 613.59740069 631.90252444 645.12661551 654.44651647 660.87891062 665.22019296 668.04609730 669.74107544 670.53527274 670.53527274 669.74107544 668.04609730 665.22019296 660.87891062 654.44651647 645.12661551 631.90252444 613.59740069 589.02415084 557.23654051 517.85054374 471.35084558 419.26145551 364.07532062 308.93504147 257.36087825 214.69328193 200.00000000 200.00000000 200.00000000 200.00000000 200.00000000 249.86662120 301.32665218 355.48879628 409.93649513 461.68807490 508.24457046 548.02190309 580.44252163 605.78478795 624.89745596 638.89227504 648.89718255 655.90339286 660.69854832 663.85902442 665.77347673 666.67621543 666.67621543 665.77347673 663.85902442 660.69854832 655.90339286 648.89718255 638.89227504 624.89745596 605.78478795 580.44252163 548.02190309 508.24457046 461.68807490 409.93649513 355.48879628 301.32665218 249.86662120 200.00000000 200.00000000 200.00000000 200.00000000 200.00000000 200.00000000 240.58814533 287.33353973 338.78952675 391.62346677 442.60463741 489.14525398 529.55075298 563.07927439 589.81561773 610.42453915 625.87102247 637.18347237 645.29735142 650.97710534 654.79498576 657.14344347 658.26170460 658.26170460 657.14344347 654.79498576 650.97710534 645.29735142 637.18347237 625.87102247 610.42453915 589.81561773 563.07927439 529.55075298 489.14525398 442.60463741 391.62346677 338.78952675 287.33353973 240.58814533 200.00000000 200.00000000 200.00000000 200.00000000 200.00000000 200.00000000 226.02221563 266.36827031 314.39537338 364.96207895 414.65896281 460.89431682 501.88388593 536.69825977 565.17453440 587.72925075 605.11957418 618.22325088 627.88301493 634.81696288 639.57959174 642.55849981 643.99203280 643.99203280 642.55849981 639.57959174 634.81696288 627.88301493 618.22325088 605.11957418 587.72925075 565.17453440 536.69825977 501.88388593 460.89431682 414.65896281 364.96207895 314.39537338 266.36827031 226.02221563 200.00000000 200.00000000 200.00000000 200.00000000 200.00000000 200.00000000 200.00000000 237.32738533 283.22752726 331.12285298 378.89102126 424.25796915 465.42573823 501.31012156 531.48418887 556.08392834 575.61773452 590.76590689 602.23752749 610.67474309 616.59252594 620.35507645 622.18474482 622.18474482 620.35507645 616.59252594 610.67474309 602.23752749 590.76590689 575.61773452 556.08392834 531.48418887 501.31012156 465.42573823 424.25796915 378.89102126 331.12285298 283.22752726 237.32738533 200.00000000 200.00000000 200.00000000 200.00000000 200.00000000 200.00000000 200.00000000 200.00000000 200.00000000 248.21588459 292.07516450 336.94437137 380.61062609 421.16963138 457.48752813 488.87427359 515.19225662 536.69300144 553.82070028 567.11239287 577.10846316 584.26207885 588.88612857 591.15907191 591.15907191 588.88612857 584.26207885 577.10846316 567.11239287 553.82070028 536.69300144 515.19225662 488.87427359 457.48752813 421.16963138 380.61062609 336.94437137 292.07516450 248.21588459 200.00000000 200.00000000 200.00000000 200.00000000 200.00000000 200.00000000 200.00000000 200.00000000 200.00000000 200.00000000 220.01301123 250.11836989 290.93502734 332.04785875 370.83807806 406.60278039 438.29529467 465.56976014 488.46296706 507.13831188 521.93208747 533.28419954 541.58197226 547.04904651 549.77028112 549.77028112 547.04904651 541.58197226 533.28419954 521.93208747 507.13831188 488.46296706 465.56976014 438.29529467 406.60278039 370.83807806 332.04785875 290.93502734 250.11836989 220.01301123 200.00000000 200.00000000 200.00000000 200.00000000 200.00000000 200.00000000 200.00000000 200.00000000 200.00000000 200.00000000 200.00000000 200.00000000 242.97070680 281.60645455 316.77164410 350.89434444 381.65063911 408.76235655 432.16569006 451.61162218 467.23053092 479.44270696 488.62452735 494.84398525 497.99150061 497.99150061 494.84398525 488.62452735 479.44270696 467.23053092 451.61162218 432.16569006 408.76235655 381.65063911 350.89434444 316.77164410 281.60645455 242.97070680 200.00000000 200.00000000 200.00000000 200.00000000 200.00000000 200.00000000 200.00000000 200.00000000 200.00000000 200.00000000 200.00000000 200.00000000 200.00000000 200.00000000 200.00000000 234.61108625 260.98857630 293.38705962 321.63814894 347.30790258 370.29419061 389.45866087 404.83651400 417.10972663 426.85925005 433.79508319 437.37893060 437.37893060 433.79508319 426.85925005 417.10972663 404.83651400 389.45866087 370.29419061 347.30790258 321.63814894 293.38705962 260.98857630 234.61108625 200.00000000 200.00000000 200.00000000 200.00000000 200.00000000 200.00000000 200.00000000 200.00000000 200.00000000 200.00000000 200.00000000 200.00000000 200.00000000 200.00000000 200.00000000 200.00000000 200.00000000 200.00000000 238.47897606 261.08931038 284.61898301 306.67193431 324.12577876 337.63183585 348.80289211 359.14974704 367.14689861 371.31019232 371.31019232 367.14689861 359.14974704 348.80289211 337.63183585 324.12577876 306.67193431 284.61898301 261.08931038 238.47897606 200.00000000 200.00000000 200.00000000 200.00000000 200.00000000 200.00000000 200.00000000 200.00000000 200.00000000 200.00000000 200.00000000 200.00000000 200.00000000 200.00000000 200.00000000 200.00000000 200.00000000 200.00000000 200.00000000 200.00000000 200.00000000 200.00000000 226.66548148 247.05774777 259.84689003 268.72709346 276.86486196 289.71320199 300.06477551 305.06354037 305.06354037 300.06477551 289.71320199 276.86486196 268.72709346 259.84689003 247.05774777 226.66548148 200.00000000 200.00000000 200.00000000 200.00000000 200.00000000 200.00000000 200.00000000 200.00000000 200.00000000 200.00000000 200.00000000 200.00000000 200.00000000 200.00000000 200.00000000 200.00000000 200.00000000 200.00000000 200.00000000 200.00000000 200.00000000 200.00000000 200.00000000 200.00000000 200.00000000 200.00000000 200.00000000 200.00000000 200.00000000 226.34872004 240.55097545 245.75762216 245.75762216 240.55097545 226.34872004 200.00000000 200.00000000 200.00000000 200.00000000 200.00000000 200.00000000 200.00000000 200.00000000 200.00000000 200.00000000 200.00000000 200.00000000 200.00000000 200.00000000 200.00000000 200.00000000 200.00000000 200.00000000 200.00000000 200.00000000 200.00000000 200.00000000 200.00000000 200.00000000 200.00000000 200.00000000 200.00000000 200.00000000 200.00000000 200.00000000 200.00000000 200.00000000 200.00000000 200.00000000 200.00000000 200.00000000 200.00000000 200.00000000 200.00000000 200.00000000 200.00000000 200.00000000 200.00000000 200.00000000 200.00000000 200.00000000 200.00000000 200.00000000 200.00000000 200.00000000 200.00000000 200.00000000 200.00000000 200.00000000 200.00000000 200.00000000 200.00000000 200.00000000 200.00000000 200.00000000 200.00000000 200.00000000 200.00000000 200.00000000 200.00000000 200.00000000 200.00000000 200.00000000 200.00000000 200.00000000 200.00000000 200.00000000 200.00000000 200.00000000 200.00000000 200.00000000 200.00000000 200.00000000 200.00000000 200.00000000 200.00000000 200.00000000 200.00000000 200.00000000 200.00000000 200.00000000 200.00000000 200.00000000 200.00000000 200.00000000 200.00000000 200.00000000 200.00000000 200.00000000 200.00000000 200.00000000 200.00000000 200.00000000 200.00000000 200.00000000 200.00000000 200.00000000 200.00000000 200.00000000 200.00000000 200.00000000 200.00000000 200.00000000 200.00000000 200.00000000 200.00000000 200.00000000 200.00000000 200.00000000 200.00000000 200.00000000 200.00000000 200.00000000 200.00000000 200.00000000 200.00000000 200.00000000 200.00000000 200.00000000 200.00000000 200.00000000 200.00000000 200.00000000 200.00000000 200.00000000 200.00000000 200.00000000 200.00000000 200.00000000 200.00000000 200.00000000 200.00000000 200.00000000 200.00000000 200.00000000 200.00000000 200.00000000 200.00000000 200.00000000 200.00000000 200.00000000 200.00000000 200.00000000 200.00000000 200.00000000 200.00000000 200.00000000 200.00000000 200.00000000 200.00000000 200.00000000 200.00000000 200.00000000 200.00000000 200.00000000 200.00000000 200.00000000 200.00000000 200.00000000 200.00000000 200.00000000 200.00000000 200.00000000 200.00000000 200.00000000 200.00000000 200.00000000 200.00000000 200.00000000 200.00000000 200.00000000 200.00000000 200.00000000 200.00000000 200.00000000 200.00000000 200.00000000 200.00000000 200.00000000 200.00000000 200.00000000 200.00000000 200.00000000 200.00000000 200.00000000 200.00000000 200.00000000 200.00000000 200.00000000 200.00000000 200.00000000 200.00000000 200.00000000 200.00000000 200.00000000 200.00000000 200.00000000 200.00000000 200.00000000 200.00000000 200.00000000 200.00000000 200.00000000 200.00000000 200.00000000 200.00000000 200.00000000 200.00000000 200.00000000 200.00000000 200.00000000 200.00000000 200.00000000 200.00000000 200.00000000 200.00000000 200.00000000 200.00000000 200.00000000 200.00000000 200.00000000 200.00000000 200.00000000 200.00000000 200.00000000 200.00000000 200.00000000 200.00000000 200.00000000 200.00000000 200.00000000 200.00000000 200.00000000 200.00000000 200.00000000 200.00000000 200.00000000 200.00000000 200.00000000 200.00000000 200.00000000 200.00000000 200.00000000 200.00000000 200.00000000 200.00000000 200.00000000 200.00000000 200.00000000 200.00000000 200.00000000 200.00000000 200.00000000 200.00000000 200.00000000 200.00000000 200.00000000 200.00000000 200.00000000 200.00000000 200.00000000 200.00000000 200.00000000 200.00000000 200.00000000 200.00000000 200.00000000 200.00000000 200.00000000 200.00000000 200.00000000 200.00000000 200.00000000 200.00000000 200.00000000 200.00000000 200.00000000 200.00000000 200.00000000 200.00000000 200.00000000 200.00000000 200.00000000 200.00000000 200.00000000 200.00000000 200.00000000 200.00000000 200.00000000 200.00000000 200.00000000 200.00000000 200.00000000 200.00000000 200.00000000 200.00000000 200.00000000 200.00000000 200.00000000 200.00000000 200.00000000 200.00000000 200.00000000 200.00000000 200.00000000 200.00000000 200.00000000 200.00000000 200.00000000 200.00000000 200.00000000 200.00000000 200.00000000 200.00000000 200.00000000 200.00000000 200.00000000 200.00000000 200.00000000 200.00000000 200.00000000 200.00000000 200.00000000 200.00000000 200.00000000 200.00000000 200.00000000 200.00000000 200.00000000 200.00000000 200.00000000 200.00000000 