# vtk DataFile Version 3.0
VTK - Matlab export
ASCII
DATASET STRUCTURED_POINTS
DIMENSIONS 40 40 1
SPACING 1 1 1
ORIGIN 0 0 0
POINT_DATA 1600
SCALARS Proofstrength float 1
LOOKUP_TABLE default
140.71398941 140.71398941 140.71398941 140.71398941 140.71398941 140.71398941 140.71398941 140.71398941 140.71398941 140.71398941 140.71398941 140.71398941 140.71398941 140.71398941 140.71398941 140.71398941 140.71398941 140.71398941 140.71398941 140.71398941 140.71398941 140.71398941 140.71398941 140.71398941 140.71398941 140.71398941 140.71398941 140.71398941 140.71398941 140.71398941 140.71398941 140.71398941 140.71398941 140.71398941 140.71398941 140.71398941 140.71398941 140.71398941 140.71398941 140.71398941 140.71398941 140.71398941 140.71398941 140.71398941 140.71398941 140.71398941 140.71398941 140.71398941 140.71398941 140.71398941 140.71398941 140.71398941 140.71398941 140.71398941 140.71398941 140.71398941 140.71398941 140.71398941 140.71398941 140.71398941 140.71398941 140.71398941 140.71398941 140.71398941 140.71398941 140.71398941 140.71398941 140.71398941 140.71398941 140.71398941 140.71398941 140.71398941 140.71398941 140.71398941 140.71398941 140.71398941 140.71398941 140.71398941 140.71398941 140.71398941 140.71398941 140.71398941 140.71398941 140.71398941 140.71398941 140.71398941 140.71398941 140.71398941 140.71398941 140.71398941 140.71398941 140.71398941 140.71398941 140.71398941 140.71398941 140.71398941 140.71398941 140.71398941 140.71398941 140.71398941 140.71398941 140.71398941 140.71398941 140.71398941 140.71398941 140.71398941 140.71398941 140.71398941 140.71398941 140.71398941 140.71398941 140.71398941 140.71398941 140.71398941 140.71398941 140.71398941 140.71398941 140.71398941 140.71398941 140.71398941 140.71398941 140.71398941 140.71398941 140.71398941 140.71398941 140.71398941 140.71398941 140.71398941 140.71398941 140.71398941 140.71398941 140.71398941 140.71398941 140.71398941 140.71398941 140.71398941 140.71398941 140.71398941 140.71398941 140.71398941 140.71398941 140.71398941 140.71398941 140.71398941 140.71398941 140.71398941 140.71398941 140.71398941 140.71398941 140.71398941 140.71398941 140.71398941 140.71398941 140.71398941 140.71398941 140.71398941 140.71398941 140.71398941 140.71398941 140.71398941 140.71398941 140.71398941 140.71398941 140.71398941 140.71398941 140.71398941 140.71398941 140.71398941 140.71398941 140.71398941 140.71398941 140.71398941 140.71398941 140.71398941 140.71398941 140.71398941 140.71398941 140.71398941 140.71398941 140.71398941 140.71398941 140.71398941 140.71398941 140.71398941 140.71398941 140.71398941 140.71398941 140.71398941 140.71398941 140.71398941 140.71398941 140.71398941 140.71398941 140.71398941 140.71398941 140.71398941 140.71398941 140.71398941 140.71398941 140.71398941 140.71398941 140.71398941 140.71398941 140.71398941 140.71398941 140.71398941 140.71398941 140.71398941 140.71398941 140.71398941 140.71398941 140.71398941 140.71398941 140.71398941 140.71398941 140.71398941 140.71398941 140.71398941 140.71398941 140.71398941 140.71398941 140.71398941 140.71398941 140.71398941 140.71398941 140.71398941 140.71398941 140.71398941 140.71398941 140.71398941 140.71398941 140.71398941 140.71398941 140.71398941 140.71398941 140.71398941 140.71398941 140.71398941 140.71398941 140.71398941 140.71398941 140.71398941 140.71398941 140.71398941 140.71398941 140.71398941 140.71398941 140.71398941 140.71398941 140.71398941 140.71398941 140.71398941 140.71398941 140.71398941 140.71398941 140.71398941 140.71398941 140.71398941 140.71398941 140.71398941 140.71398941 140.71398941 140.71398941 140.71398941 140.71398941 140.71398941 140.71398941 140.71398941 140.71398941 140.71398941 140.71398941 140.71398941 140.71398941 140.71398941 140.71398941 140.71398941 140.71398941 140.71398941 140.71398941 140.71398941 140.71398941 140.71398941 140.71398941 140.71398941 140.71398941 140.71398941 140.71398941 140.71398941 140.71398941 140.71398941 140.71398941 140.71398941 140.71398941 140.71398941 140.71398941 140.71398941 140.71398941 140.71398941 140.71398941 140.71398941 140.71398941 140.71398941 140.71398941 140.71398941 140.71398941 140.71398941 140.71398941 140.71398941 140.71398941 140.71398941 140.71398941 140.71398941 140.71398941 140.71398941 140.71398941 140.71398941 140.71398941 140.71398941 140.71398941 140.71398941 140.71398941 140.71398941 140.71398941 140.71398941 140.71398941 140.71398941 140.71398941 140.71398941 140.71398941 140.71398941 140.71398941 140.71398941 140.71398941 140.71398941 140.71398941 140.71398941 140.71398941 140.71611897 140.71726408 140.71768229 140.71768229 140.71726408 140.71611897 140.71398941 140.71398941 140.71398941 140.71398941 140.71398941 140.71398941 140.71398941 140.71398941 140.71398941 140.71398941 140.71398941 140.71398941 140.71398941 140.71398941 140.71398941 140.71398941 140.71398941 140.71398941 140.71398941 140.71398941 140.71398941 140.71398941 140.71398941 140.71398941 140.71398941 140.71398941 140.71398941 140.71398941 140.71398941 140.71623708 140.71791864 140.71893716 140.71961529 140.72022747 140.72122898 140.72203895 140.72242846 140.72242846 140.72203895 140.72122898 140.72022747 140.71961529 140.71893716 140.71791864 140.71623708 140.71398941 140.71398941 140.71398941 140.71398941 140.71398941 140.71398941 140.71398941 140.71398941 140.71398941 140.71398941 140.71398941 140.71398941 140.71398941 140.71398941 140.71398941 140.71398941 140.71398941 140.71398941 140.71398941 140.71398941 140.71398941 140.71398941 140.71732810 140.71922723 140.72114722 140.72289593 140.72422511 140.72520793 140.72599825 140.72673814 140.72731512 140.72761521 140.72761521 140.72731512 140.72673814 140.72599825 140.72520793 140.72422511 140.72289593 140.72114722 140.71922723 140.71732810 140.71398941 140.71398941 140.71398941 140.71398941 140.71398941 140.71398941 140.71398941 140.71398941 140.71398941 140.71398941 140.71398941 140.71398941 140.71398941 140.71398941 140.71398941 140.71398941 140.71398941 140.71398941 140.71709010 140.71938572 140.72213309 140.72443640 140.72643992 140.72815459 140.72950858 140.73053249 140.73131138 140.73191848 140.73234891 140.73257065 140.73257065 140.73234891 140.73191848 140.73131138 140.73053249 140.72950858 140.72815459 140.72643992 140.72443640 140.72213309 140.71938572 140.71709010 140.71398941 140.71398941 140.71398941 140.71398941 140.71398941 140.71398941 140.71398941 140.71398941 140.71398941 140.71398941 140.71398941 140.71398941 140.71398941 140.71398941 140.71398941 140.71790973 140.72134676 140.72436580 140.72717682 140.72957894 140.73156428 140.73315645 140.73437096 140.73525869 140.73589380 140.73634161 140.73663392 140.73677893 140.73677893 140.73663392 140.73634161 140.73589380 140.73525869 140.73437096 140.73315645 140.73156428 140.72957894 140.72717682 140.72436580 140.72134676 140.71790973 140.71398941 140.71398941 140.71398941 140.71398941 140.71398941 140.71398941 140.71398941 140.71398941 140.71398941 140.71398941 140.71398941 140.71398941 140.71586757 140.71865075 140.72234672 140.72595651 140.72921591 140.73205180 140.73437901 140.73619261 140.73753703 140.73847765 140.73909775 140.73948643 140.73972054 140.73985264 140.73991216 140.73991216 140.73985264 140.73972054 140.73948643 140.73909775 140.73847765 140.73753703 140.73619261 140.73437901 140.73205180 140.72921591 140.72595651 140.72234672 140.71865075 140.71586757 140.71398941 140.71398941 140.71398941 140.71398941 140.71398941 140.71398941 140.71398941 140.71398941 140.71398941 140.71398941 140.71854026 140.72260303 140.72664399 140.73042268 140.73373704 140.73647387 140.73858348 140.74008934 140.74106932 140.74163025 140.74188986 140.74196072 140.74193680 140.74188616 140.74185094 140.74185094 140.74188616 140.74193680 140.74196072 140.74188986 140.74163025 140.74106932 140.74008934 140.73858348 140.73647387 140.73373704 140.73042268 140.72664399 140.72260303 140.71854026 140.71398941 140.71398941 140.71398941 140.71398941 140.71398941 140.71398941 140.71398941 140.71398941 140.71398941 140.71756078 140.72189388 140.72632079 140.73059330 140.73445490 140.73770663 140.74023769 140.74202627 140.74313150 140.74367054 140.74379004 140.74364119 140.74336087 140.74305977 140.74281774 140.74268485 140.74268485 140.74281774 140.74305977 140.74336087 140.74364119 140.74379004 140.74367054 140.74313150 140.74202627 140.74023769 140.73770663 140.73445490 140.73059330 140.72632079 140.72189388 140.71756078 140.71398941 140.71398941 140.71398941 140.71398941 140.71398941 140.71398941 140.71398941 140.71650346 140.72036928 140.72490511 140.72956917 140.73398269 140.73784954 140.74096442 140.74322812 140.74464726 140.74531815 140.74539757 140.74506919 140.74451428 140.74389105 140.74332388 140.74290080 140.74267639 140.74267639 140.74290080 140.74332388 140.74389105 140.74451428 140.74506919 140.74539757 140.74531815 140.74464726 140.74322812 140.74096442 140.73784954 140.73398269 140.72956917 140.72490511 140.72036928 140.71650346 140.71398941 140.71398941 140.71398941 140.71398941 140.71398941 140.71398941 140.71792137 140.72241232 140.72727808 140.73214496 140.73664424 140.74047171 140.74342338 140.74541490 140.74647995 140.74674871 140.74641297 140.74568768 140.74477849 140.74386016 140.74306676 140.74249125 140.74219029 140.74219029 140.74249125 140.74306676 140.74386016 140.74477849 140.74568768 140.74641297 140.74674871 140.74647995 140.74541490 140.74342338 140.74047171 140.73664424 140.73214496 140.72727808 140.72241232 140.71792137 140.71398941 140.71398941 140.71398941 140.71398941 140.71398941 140.71398941 140.71882993 140.72378348 140.72891085 140.73392267 140.73846847 140.74224585 140.74505566 140.74682695 140.74761483 140.74757540 140.74692649 140.74590570 140.74473572 140.74360230 140.74264545 140.74196056 140.74160492 140.74160492 140.74196056 140.74264545 140.74360230 140.74473572 140.74590570 140.74692649 140.74757540 140.74761483 140.74682695 140.74505566 140.74224585 140.73846847 140.73392267 140.72891085 140.72378348 140.71882993 140.71398941 140.71398941 140.71398941 140.71398941 140.71398941 140.71542083 140.71956472 140.72453132 140.72975311 140.73483061 140.73939425 140.74313837 140.74586635 140.74751487 140.74815090 140.74794457 140.74712761 140.74594948 140.74464160 140.74339515 140.74235286 140.74161103 140.74122700 140.74122700 140.74161103 140.74235286 140.74339515 140.74464160 140.74594948 140.74712761 140.74794457 140.74815090 140.74751487 140.74586635 140.74313837 140.73939425 140.73483061 140.72975311 140.72453132 140.71956472 140.71542083 140.71398941 140.71398941 140.71398941 140.71398941 140.71542083 140.71956472 140.72453132 140.72975311 140.73483061 140.73939425 140.74313837 140.74586635 140.74751487 140.74815090 140.74794457 140.74712761 140.74594948 140.74464160 140.74339515 140.74235286 140.74161103 140.74122700 140.74122700 140.74161103 140.74235286 140.74339515 140.74464160 140.74594948 140.74712761 140.74794457 140.74815090 140.74751487 140.74586635 140.74313837 140.73939425 140.73483061 140.72975311 140.72453132 140.71956472 140.71542083 140.71398941 140.71398941 140.71398941 140.71398941 140.71398941 140.71882993 140.72378348 140.72891085 140.73392267 140.73846847 140.74224585 140.74505566 140.74682695 140.74761483 140.74757540 140.74692649 140.74590570 140.74473572 140.74360230 140.74264545 140.74196056 140.74160492 140.74160492 140.74196056 140.74264545 140.74360230 140.74473572 140.74590570 140.74692649 140.74757540 140.74761483 140.74682695 140.74505566 140.74224585 140.73846847 140.73392267 140.72891085 140.72378348 140.71882993 140.71398941 140.71398941 140.71398941 140.71398941 140.71398941 140.71398941 140.71792137 140.72241232 140.72727808 140.73214496 140.73664424 140.74047171 140.74342338 140.74541490 140.74647995 140.74674871 140.74641297 140.74568768 140.74477849 140.74386016 140.74306676 140.74249125 140.74219029 140.74219029 140.74249125 140.74306676 140.74386016 140.74477849 140.74568768 140.74641297 140.74674871 140.74647995 140.74541490 140.74342338 140.74047171 140.73664424 140.73214496 140.72727808 140.72241232 140.71792137 140.71398941 140.71398941 140.71398941 140.71398941 140.71398941 140.71398941 140.71650346 140.72036928 140.72490511 140.72956917 140.73398269 140.73784954 140.74096442 140.74322812 140.74464726 140.74531815 140.74539757 140.74506919 140.74451428 140.74389105 140.74332388 140.74290080 140.74267639 140.74267639 140.74290080 140.74332388 140.74389105 140.74451428 140.74506919 140.74539757 140.74531815 140.74464726 140.74322812 140.74096442 140.73784954 140.73398269 140.72956917 140.72490511 140.72036928 140.71650346 140.71398941 140.71398941 140.71398941 140.71398941 140.71398941 140.71398941 140.71398941 140.71756078 140.72189388 140.72632079 140.73059330 140.73445490 140.73770663 140.74023769 140.74202627 140.74313150 140.74367054 140.74379004 140.74364119 140.74336087 140.74305977 140.74281774 140.74268485 140.74268485 140.74281774 140.74305977 140.74336087 140.74364119 140.74379004 140.74367054 140.74313150 140.74202627 140.74023769 140.73770663 140.73445490 140.73059330 140.72632079 140.72189388 140.71756078 140.71398941 140.71398941 140.71398941 140.71398941 140.71398941 140.71398941 140.71398941 140.71398941 140.71398941 140.71854026 140.72260303 140.72664399 140.73042268 140.73373704 140.73647387 140.73858348 140.74008934 140.74106932 140.74163025 140.74188986 140.74196072 140.74193680 140.74188616 140.74185094 140.74185094 140.74188616 140.74193680 140.74196072 140.74188986 140.74163025 140.74106932 140.74008934 140.73858348 140.73647387 140.73373704 140.73042268 140.72664399 140.72260303 140.71854026 140.71398941 140.71398941 140.71398941 140.71398941 140.71398941 140.71398941 140.71398941 140.71398941 140.71398941 140.71398941 140.71586757 140.71865075 140.72234672 140.72595651 140.72921591 140.73205180 140.73437901 140.73619261 140.73753703 140.73847765 140.73909775 140.73948643 140.73972054 140.73985264 140.73991216 140.73991216 140.73985264 140.73972054 140.73948643 140.73909775 140.73847765 140.73753703 140.73619261 140.73437901 140.73205180 140.72921591 140.72595651 140.72234672 140.71865075 140.71586757 140.71398941 140.71398941 140.71398941 140.71398941 140.71398941 140.71398941 140.71398941 140.71398941 140.71398941 140.71398941 140.71398941 140.71398941 140.71790973 140.72134676 140.72436580 140.72717682 140.72957894 140.73156428 140.73315645 140.73437096 140.73525869 140.73589380 140.73634161 140.73663392 140.73677893 140.73677893 140.73663392 140.73634161 140.73589380 140.73525869 140.73437096 140.73315645 140.73156428 140.72957894 140.72717682 140.72436580 140.72134676 140.71790973 140.71398941 140.71398941 140.71398941 140.71398941 140.71398941 140.71398941 140.71398941 140.71398941 140.71398941 140.71398941 140.71398941 140.71398941 140.71398941 140.71398941 140.71398941 140.71709010 140.71938572 140.72213309 140.72443640 140.72643992 140.72815459 140.72950858 140.73053249 140.73131138 140.73191848 140.73234891 140.73257065 140.73257065 140.73234891 140.73191848 140.73131138 140.73053249 140.72950858 140.72815459 140.72643992 140.72443640 140.72213309 140.71938572 140.71709010 140.71398941 140.71398941 140.71398941 140.71398941 140.71398941 140.71398941 140.71398941 140.71398941 140.71398941 140.71398941 140.71398941 140.71398941 140.71398941 140.71398941 140.71398941 140.71398941 140.71398941 140.71398941 140.71732810 140.71922723 140.72114722 140.72289593 140.72422511 140.72520793 140.72599825 140.72673814 140.72731512 140.72761521 140.72761521 140.72731512 140.72673814 140.72599825 140.72520793 140.72422511 140.72289593 140.72114722 140.71922723 140.71732810 140.71398941 140.71398941 140.71398941 140.71398941 140.71398941 140.71398941 140.71398941 140.71398941 140.71398941 140.71398941 140.71398941 140.71398941 140.71398941 140.71398941 140.71398941 140.71398941 140.71398941 140.71398941 140.71398941 140.71398941 140.71398941 140.71398941 140.71623708 140.71791864 140.71893716 140.71961529 140.72022747 140.72122898 140.72203895 140.72242846 140.72242846 140.72203895 140.72122898 140.72022747 140.71961529 140.71893716 140.71791864 140.71623708 140.71398941 140.71398941 140.71398941 140.71398941 140.71398941 140.71398941 140.71398941 140.71398941 140.71398941 140.71398941 140.71398941 140.71398941 140.71398941 140.71398941 140.71398941 140.71398941 140.71398941 140.71398941 140.71398941 140.71398941 140.71398941 140.71398941 140.71398941 140.71398941 140.71398941 140.71398941 140.71398941 140.71398941 140.71398941 140.71611897 140.71726408 140.71768229 140.71768229 140.71726408 140.71611897 140.71398941 140.71398941 140.71398941 140.71398941 140.71398941 140.71398941 140.71398941 140.71398941 140.71398941 140.71398941 140.71398941 140.71398941 140.71398941 140.71398941 140.71398941 140.71398941 140.71398941 140.71398941 140.71398941 140.71398941 140.71398941 140.71398941 140.71398941 140.71398941 140.71398941 140.71398941 140.71398941 140.71398941 140.71398941 140.71398941 140.71398941 140.71398941 140.71398941 140.71398941 140.71398941 140.71398941 140.71398941 140.71398941 140.71398941 140.71398941 140.71398941 140.71398941 140.71398941 140.71398941 140.71398941 140.71398941 140.71398941 140.71398941 140.71398941 140.71398941 140.71398941 140.71398941 140.71398941 140.71398941 140.71398941 140.71398941 140.71398941 140.71398941 140.71398941 140.71398941 140.71398941 140.71398941 140.71398941 140.71398941 140.71398941 140.71398941 140.71398941 140.71398941 140.71398941 140.71398941 140.71398941 140.71398941 140.71398941 140.71398941 140.71398941 140.71398941 140.71398941 140.71398941 140.71398941 140.71398941 140.71398941 140.71398941 140.71398941 140.71398941 140.71398941 140.71398941 140.71398941 140.71398941 140.71398941 140.71398941 140.71398941 140.71398941 140.71398941 140.71398941 140.71398941 140.71398941 140.71398941 140.71398941 140.71398941 140.71398941 140.71398941 140.71398941 140.71398941 140.71398941 140.71398941 140.71398941 140.71398941 140.71398941 140.71398941 140.71398941 140.71398941 140.71398941 140.71398941 140.71398941 140.71398941 140.71398941 140.71398941 140.71398941 140.71398941 140.71398941 140.71398941 140.71398941 140.71398941 140.71398941 140.71398941 140.71398941 140.71398941 140.71398941 140.71398941 140.71398941 140.71398941 140.71398941 140.71398941 140.71398941 140.71398941 140.71398941 140.71398941 140.71398941 140.71398941 140.71398941 140.71398941 140.71398941 140.71398941 140.71398941 140.71398941 140.71398941 140.71398941 140.71398941 140.71398941 140.71398941 140.71398941 140.71398941 140.71398941 140.71398941 140.71398941 140.71398941 140.71398941 140.71398941 140.71398941 140.71398941 140.71398941 140.71398941 140.71398941 140.71398941 140.71398941 140.71398941 140.71398941 140.71398941 140.71398941 140.71398941 140.71398941 140.71398941 140.71398941 140.71398941 140.71398941 140.71398941 140.71398941 140.71398941 140.71398941 140.71398941 140.71398941 140.71398941 140.71398941 140.71398941 140.71398941 140.71398941 140.71398941 140.71398941 140.71398941 140.71398941 140.71398941 140.71398941 140.71398941 140.71398941 140.71398941 140.71398941 140.71398941 140.71398941 140.71398941 140.71398941 140.71398941 140.71398941 140.71398941 140.71398941 140.71398941 140.71398941 140.71398941 140.71398941 140.71398941 140.71398941 140.71398941 140.71398941 140.71398941 140.71398941 140.71398941 140.71398941 140.71398941 140.71398941 140.71398941 140.71398941 140.71398941 140.71398941 140.71398941 140.71398941 140.71398941 140.71398941 140.71398941 140.71398941 140.71398941 140.71398941 140.71398941 140.71398941 140.71398941 140.71398941 140.71398941 140.71398941 140.71398941 140.71398941 140.71398941 140.71398941 140.71398941 140.71398941 140.71398941 140.71398941 140.71398941 140.71398941 140.71398941 140.71398941 140.71398941 140.71398941 140.71398941 140.71398941 140.71398941 140.71398941 140.71398941 140.71398941 140.71398941 140.71398941 140.71398941 140.71398941 140.71398941 140.71398941 140.71398941 140.71398941 140.71398941 140.71398941 140.71398941 140.71398941 140.71398941 140.71398941 140.71398941 140.71398941 140.71398941 140.71398941 140.71398941 140.71398941 140.71398941 140.71398941 140.71398941 140.71398941 140.71398941 140.71398941 140.71398941 140.71398941 140.71398941 140.71398941 140.71398941 140.71398941 140.71398941 140.71398941 140.71398941 140.71398941 140.71398941 140.71398941 140.71398941 140.71398941 140.71398941 140.71398941 140.71398941 140.71398941 140.71398941 140.71398941 140.71398941 140.71398941 140.71398941 140.71398941 140.71398941 140.71398941 140.71398941 140.71398941 140.71398941 140.71398941 140.71398941 140.71398941 140.71398941 140.71398941 140.71398941 140.71398941 140.71398941 140.71398941 140.71398941 140.71398941 140.71398941 140.71398941 140.71398941 140.71398941 140.71398941 140.71398941 140.71398941 140.71398941 140.71398941 140.71398941 140.71398941 140.71398941 140.71398941 140.71398941 140.71398941 