# vtk DataFile Version 3.0
VTK - Matlab export
ASCII
DATASET STRUCTURED_POINTS
DIMENSIONS 40 40 1
SPACING 1 1 1
ORIGIN 0 0 0
POINT_DATA 1600
SCALARS lambda-2 float 1
LOOKUP_TABLE default
8.35311101 8.35311101 8.35311101 8.35311101 8.35311101 8.35311101 8.35311101 8.35311101 8.35311101 8.35311101 8.35311101 8.35311101 8.35311101 8.35311101 8.35311101 8.35311101 8.35311101 8.35311101 8.35311101 8.35311101 8.35311101 8.35311101 8.35311101 8.35311101 8.35311101 8.35311101 8.35311101 8.35311101 8.35311101 8.35311101 8.35311101 8.35311101 8.35311101 8.35311101 8.35311101 8.35311101 8.35311101 8.35311101 8.35311101 8.35311101 8.35311101 8.35311101 8.35311101 8.35311101 8.35311101 8.35311101 8.35311101 8.35311101 8.35311101 8.35311101 8.35311101 8.35311101 8.35311101 8.35311101 8.35311101 8.35311101 8.35311101 8.35311101 8.35311101 8.35311101 8.35311101 8.35311101 8.35311101 8.35311101 8.35311101 8.35311101 8.35311101 8.35311101 8.35311101 8.35311101 8.35311101 8.35311101 8.35311101 8.35311101 8.35311101 8.35311101 8.35311101 8.35311101 8.35311101 8.35311101 8.35311101 8.35311101 8.35311101 8.35311101 8.35311101 8.35311101 8.35311101 8.35311101 8.35311101 8.35311101 8.35311101 8.35311101 8.35311101 8.35311101 8.35311101 8.35311101 8.35311101 8.35311101 8.35311101 8.35311101 8.35311101 8.35311101 8.35311101 8.35311101 8.35311101 8.35311101 8.35311101 8.35311101 8.35311101 8.35311101 8.35311101 8.35311101 8.35311101 8.35311101 8.35311101 8.35311101 8.35311101 8.35311101 8.35311101 8.35311101 8.35311101 8.35311101 8.35311101 8.35311101 8.35311101 8.35311101 8.35311101 8.35311101 8.35311101 8.35311101 8.35311101 8.35311101 8.35311101 8.35311101 8.35311101 8.35311101 8.35311101 8.35311101 8.35311101 8.35311101 8.35311101 8.35311101 8.35311101 8.35311101 8.35311101 8.35311101 8.35311101 8.35311101 8.35311101 8.35311101 8.35311101 8.35311101 8.35311101 8.35311101 8.35311101 8.35311101 8.35311101 8.35311101 8.35311101 8.35311101 8.35311101 8.35311101 8.35311101 8.35311101 8.35311101 8.35311101 8.35311101 8.35311101 8.35311101 8.35311101 8.35311101 8.35311101 8.35311101 8.35311101 8.35311101 8.35311101 8.35311101 8.35311101 8.35311101 8.35311101 8.35311101 8.35311101 8.35311101 8.35311101 8.35311101 8.35311101 8.35311101 8.35311101 8.35311101 8.35311101 8.35311101 8.35311101 8.35311101 8.35311101 8.35311101 8.35311101 8.35311101 8.35311101 8.35311101 8.35311101 8.35311101 8.35311101 8.35311101 8.35311101 8.35311101 8.35311101 8.35311101 8.35311101 8.35311101 8.35311101 8.35311101 8.35311101 8.35311101 8.35311101 8.35311101 8.35311101 8.35311101 8.35311101 8.35311101 8.35311101 8.35311101 8.35311101 8.35311101 8.35311101 8.35311101 8.35311101 8.35311101 8.35311101 8.35311101 8.35311101 8.35311101 8.35311101 8.35311101 8.35311101 8.35311101 8.35311101 8.35311101 8.35311101 8.35311101 8.35311101 8.35311101 8.35311101 8.35311101 8.35311101 8.35311101 8.35311101 8.35311101 8.35311101 8.35311101 8.35311101 8.35311101 8.35311101 8.35311101 8.35311101 8.35311101 8.35311101 8.35311101 8.35311101 8.35311101 8.35311101 8.35311101 8.35311101 8.35311101 8.35311101 8.35311101 8.35311101 8.35311101 8.35311101 8.35311101 8.35311101 8.35311101 8.35311101 8.35311101 8.35311101 8.35311101 8.35311101 8.35311101 8.35311101 8.35311101 8.35311101 8.35311101 8.35311101 8.35311101 8.35311101 8.35311101 8.35311101 8.35311101 8.35311101 8.35311101 8.35311101 8.35311101 8.35311101 8.35311101 8.35311101 8.35311101 8.35311101 8.35311101 8.35311101 8.35311101 8.35311101 8.35311101 8.35311101 8.35311101 8.35311101 8.35311101 8.35311101 8.35311101 8.35311101 8.35311101 8.35311101 8.35311101 8.35311101 8.35311101 8.35311101 8.35311101 8.35311101 8.35311101 8.35311101 8.35311101 8.35311101 8.35311101 8.35311101 8.35311101 8.35311101 8.35311101 8.35311101 8.35311101 8.35311101 8.35311101 8.35311101 8.35311101 8.35311101 8.35311101 8.35311101 8.35311101 8.35311101 8.35311101 8.34904702 8.34680330 8.34596799 8.34596799 8.34680330 8.34904702 8.35311101 8.35311101 8.35311101 8.35311101 8.35311101 8.35311101 8.35311101 8.35311101 8.35311101 8.35311101 8.35311101 8.35311101 8.35311101 8.35311101 8.35311101 8.35311101 8.35311101 8.35311101 8.35311101 8.35311101 8.35311101 8.35311101 8.35311101 8.35311101 8.35311101 8.35311101 8.35311101 8.35311101 8.35311101 8.34881979 8.34562282 8.34375303 8.34257481 8.34151279 8.33964181 8.33808365 8.33732442 8.33732442 8.33808365 8.33964181 8.34151279 8.34257481 8.34375303 8.34562282 8.34881979 8.35311101 8.35311101 8.35311101 8.35311101 8.35311101 8.35311101 8.35311101 8.35311101 8.35311101 8.35311101 8.35311101 8.35311101 8.35311101 8.35311101 8.35311101 8.35311101 8.35311101 8.35311101 8.35311101 8.35311101 8.35311101 8.35311101 8.34673761 8.34321280 8.33973207 8.33665154 8.33444967 8.33294390 8.33176992 8.33059645 8.32963217 8.32911994 8.32911994 8.32963217 8.33059645 8.33176992 8.33294390 8.33444967 8.33665154 8.33973207 8.34321280 8.34673761 8.35311101 8.35311101 8.35311101 8.35311101 8.35311101 8.35311101 8.35311101 8.35311101 8.35311101 8.35311101 8.35311101 8.35311101 8.35311101 8.35311101 8.35311101 8.35311101 8.35311101 8.35311101 8.34713731 8.34288303 8.33792965 8.33404034 8.33089225 8.32839627 8.32663098 8.32546555 8.32466028 8.32401834 8.32353161 8.32327064 8.32327064 8.32353161 8.32401834 8.32466028 8.32546555 8.32663098 8.32839627 8.33089225 8.33404034 8.33792965 8.34288303 8.34713731 8.35311101 8.35311101 8.35311101 8.35311101 8.35311101 8.35311101 8.35311101 8.35311101 8.35311101 8.35311101 8.35311101 8.35311101 8.35311101 8.35311101 8.35311101 8.34552121 8.33916327 8.33400544 8.32961153 8.32630224 8.32397058 8.32243702 8.32155885 8.32114696 8.32099073 8.32092611 8.32088434 8.32086031 8.32086031 8.32088434 8.32092611 8.32099073 8.32114696 8.32155885 8.32243702 8.32397058 8.32630224 8.32961153 8.33400544 8.33916327 8.34552121 8.35311101 8.35311101 8.35311101 8.35311101 8.35311101 8.35311101 8.35311101 8.35311101 8.35311101 8.35311101 8.35311101 8.35311101 8.34929933 8.34389308 8.33711223 8.33109598 8.32638155 8.32298459 8.32086892 8.31981735 8.31954488 8.31978536 8.32029828 8.32088070 8.32138873 8.32174674 8.32192847 8.32192847 8.32174674 8.32138873 8.32088070 8.32029828 8.31978536 8.31954488 8.31981735 8.32086892 8.32298459 8.32638155 8.33109598 8.33711223 8.34389308 8.34929933 8.35311101 8.35311101 8.35311101 8.35311101 8.35311101 8.35311101 8.35311101 8.35311101 8.35311101 8.35311101 8.34387109 8.33621916 8.32946440 8.32416214 8.32058406 8.31865846 8.31812040 8.31858887 8.31967058 8.32103222 8.32241978 8.32365595 8.32463228 8.32529591 8.32562920 8.32562920 8.32529591 8.32463228 8.32365595 8.32241978 8.32103222 8.31967058 8.31858887 8.31812040 8.31865846 8.32058406 8.32416214 8.32946440 8.33621916 8.34387109 8.35311101 8.35311101 8.35311101 8.35311101 8.35311101 8.35311101 8.35311101 8.35311101 8.35311101 8.34560084 8.33705379 8.32929371 8.32308782 8.31892228 8.31687742 8.31667257 8.31782151 8.31978507 8.32208891 8.32438158 8.32643719 8.32813043 8.32940586 8.33025013 8.33066867 8.33066867 8.33025013 8.32940586 8.32813043 8.32643719 8.32438158 8.32208891 8.31978507 8.31782151 8.31667257 8.31687742 8.31892228 8.32308782 8.32929371 8.33705379 8.34560084 8.35311101 8.35311101 8.35311101 8.35311101 8.35311101 8.35311101 8.35311101 8.34763216 8.33960657 8.33105489 8.32361298 8.31827744 8.31546949 8.31506829 8.31655737 8.31924565 8.32246859 8.32571186 8.32864749 8.33110833 8.33303772 8.33444096 8.33534872 8.33579300 8.33579300 8.33534872 8.33444096 8.33303772 8.33110833 8.32864749 8.32571186 8.32246859 8.31924565 8.31655737 8.31506829 8.31546949 8.31827744 8.32361298 8.33105489 8.33960657 8.34763216 8.35311101 8.35311101 8.35311101 8.35311101 8.35311101 8.35311101 8.34451305 8.33528704 8.32649689 8.31944570 8.31503375 8.31353393 8.31461190 8.31753156 8.32143528 8.32557605 8.32943580 8.33273447 8.33537453 8.33736827 8.33877679 8.33966941 8.34010098 8.34010098 8.33966941 8.33877679 8.33736827 8.33537453 8.33273447 8.32943580 8.32557605 8.32143528 8.31753156 8.31461190 8.31353393 8.31503375 8.31944570 8.32649689 8.33528704 8.34451305 8.35311101 8.35311101 8.35311101 8.35311101 8.35311101 8.35311101 8.34251758 8.33243659 8.32348202 8.31678378 8.31312957 8.31264689 8.31482334 8.31875570 8.32347238 8.32818233 8.33238250 8.33584222 8.33852372 8.34049347 8.34185384 8.34270154 8.34310717 8.34310717 8.34270154 8.34185384 8.34049347 8.33852372 8.33584222 8.33238250 8.32818233 8.32347238 8.31875570 8.31482334 8.31264689 8.31312957 8.31678378 8.32348202 8.33243659 8.34251758 8.35311101 8.35311101 8.35311101 8.35311101 8.35311101 8.34991725 8.34088242 8.33088783 8.32196646 8.31549881 8.31227325 8.31234423 8.31510162 8.31955313 8.32467046 8.32964513 8.33398797 8.33749883 8.34017395 8.34210917 8.34342846 8.34424245 8.34462953 8.34462953 8.34424245 8.34342846 8.34210917 8.34017395 8.33749883 8.33398797 8.32964513 8.32467046 8.31955313 8.31510162 8.31234423 8.31227325 8.31549881 8.32196646 8.33088783 8.34088242 8.34991725 8.35311101 8.35311101 8.35311101 8.35311101 8.34991725 8.34088242 8.33088783 8.32196646 8.31549881 8.31227325 8.31234423 8.31510162 8.31955313 8.32467046 8.32964513 8.33398797 8.33749883 8.34017395 8.34210917 8.34342846 8.34424245 8.34462953 8.34462953 8.34424245 8.34342846 8.34210917 8.34017395 8.33749883 8.33398797 8.32964513 8.32467046 8.31955313 8.31510162 8.31234423 8.31227325 8.31549881 8.32196646 8.33088783 8.34088242 8.34991725 8.35311101 8.35311101 8.35311101 8.35311101 8.35311101 8.34251758 8.33243659 8.32348202 8.31678378 8.31312957 8.31264689 8.31482334 8.31875570 8.32347238 8.32818233 8.33238250 8.33584222 8.33852372 8.34049347 8.34185384 8.34270154 8.34310717 8.34310717 8.34270154 8.34185384 8.34049347 8.33852372 8.33584222 8.33238250 8.32818233 8.32347238 8.31875570 8.31482334 8.31264689 8.31312957 8.31678378 8.32348202 8.33243659 8.34251758 8.35311101 8.35311101 8.35311101 8.35311101 8.35311101 8.35311101 8.34451305 8.33528704 8.32649689 8.31944570 8.31503375 8.31353393 8.31461190 8.31753156 8.32143528 8.32557605 8.32943580 8.33273447 8.33537453 8.33736827 8.33877679 8.33966941 8.34010098 8.34010098 8.33966941 8.33877679 8.33736827 8.33537453 8.33273447 8.32943580 8.32557605 8.32143528 8.31753156 8.31461190 8.31353393 8.31503375 8.31944570 8.32649689 8.33528704 8.34451305 8.35311101 8.35311101 8.35311101 8.35311101 8.35311101 8.35311101 8.34763216 8.33960657 8.33105489 8.32361298 8.31827744 8.31546949 8.31506829 8.31655737 8.31924565 8.32246859 8.32571186 8.32864749 8.33110833 8.33303772 8.33444096 8.33534872 8.33579300 8.33579300 8.33534872 8.33444096 8.33303772 8.33110833 8.32864749 8.32571186 8.32246859 8.31924565 8.31655737 8.31506829 8.31546949 8.31827744 8.32361298 8.33105489 8.33960657 8.34763216 8.35311101 8.35311101 8.35311101 8.35311101 8.35311101 8.35311101 8.35311101 8.34560084 8.33705379 8.32929371 8.32308782 8.31892228 8.31687742 8.31667257 8.31782151 8.31978507 8.32208891 8.32438158 8.32643719 8.32813043 8.32940586 8.33025013 8.33066867 8.33066867 8.33025013 8.32940586 8.32813043 8.32643719 8.32438158 8.32208891 8.31978507 8.31782151 8.31667257 8.31687742 8.31892228 8.32308782 8.32929371 8.33705379 8.34560084 8.35311101 8.35311101 8.35311101 8.35311101 8.35311101 8.35311101 8.35311101 8.35311101 8.35311101 8.34387109 8.33621916 8.32946440 8.32416214 8.32058406 8.31865846 8.31812040 8.31858887 8.31967058 8.32103222 8.32241978 8.32365595 8.32463228 8.32529591 8.32562920 8.32562920 8.32529591 8.32463228 8.32365595 8.32241978 8.32103222 8.31967058 8.31858887 8.31812040 8.31865846 8.32058406 8.32416214 8.32946440 8.33621916 8.34387109 8.35311101 8.35311101 8.35311101 8.35311101 8.35311101 8.35311101 8.35311101 8.35311101 8.35311101 8.35311101 8.34929933 8.34389308 8.33711223 8.33109598 8.32638155 8.32298459 8.32086892 8.31981735 8.31954488 8.31978536 8.32029828 8.32088070 8.32138873 8.32174674 8.32192847 8.32192847 8.32174674 8.32138873 8.32088070 8.32029828 8.31978536 8.31954488 8.31981735 8.32086892 8.32298459 8.32638155 8.33109598 8.33711223 8.34389308 8.34929933 8.35311101 8.35311101 8.35311101 8.35311101 8.35311101 8.35311101 8.35311101 8.35311101 8.35311101 8.35311101 8.35311101 8.35311101 8.34552121 8.33916327 8.33400544 8.32961153 8.32630224 8.32397058 8.32243702 8.32155885 8.32114696 8.32099073 8.32092611 8.32088434 8.32086031 8.32086031 8.32088434 8.32092611 8.32099073 8.32114696 8.32155885 8.32243702 8.32397058 8.32630224 8.32961153 8.33400544 8.33916327 8.34552121 8.35311101 8.35311101 8.35311101 8.35311101 8.35311101 8.35311101 8.35311101 8.35311101 8.35311101 8.35311101 8.35311101 8.35311101 8.35311101 8.35311101 8.35311101 8.34713731 8.34288303 8.33792965 8.33404034 8.33089225 8.32839627 8.32663098 8.32546555 8.32466028 8.32401834 8.32353161 8.32327064 8.32327064 8.32353161 8.32401834 8.32466028 8.32546555 8.32663098 8.32839627 8.33089225 8.33404034 8.33792965 8.34288303 8.34713731 8.35311101 8.35311101 8.35311101 8.35311101 8.35311101 8.35311101 8.35311101 8.35311101 8.35311101 8.35311101 8.35311101 8.35311101 8.35311101 8.35311101 8.35311101 8.35311101 8.35311101 8.35311101 8.34673761 8.34321280 8.33973207 8.33665154 8.33444967 8.33294390 8.33176992 8.33059645 8.32963217 8.32911994 8.32911994 8.32963217 8.33059645 8.33176992 8.33294390 8.33444967 8.33665154 8.33973207 8.34321280 8.34673761 8.35311101 8.35311101 8.35311101 8.35311101 8.35311101 8.35311101 8.35311101 8.35311101 8.35311101 8.35311101 8.35311101 8.35311101 8.35311101 8.35311101 8.35311101 8.35311101 8.35311101 8.35311101 8.35311101 8.35311101 8.35311101 8.35311101 8.34881979 8.34562282 8.34375303 8.34257481 8.34151279 8.33964181 8.33808365 8.33732442 8.33732442 8.33808365 8.33964181 8.34151279 8.34257481 8.34375303 8.34562282 8.34881979 8.35311101 8.35311101 8.35311101 8.35311101 8.35311101 8.35311101 8.35311101 8.35311101 8.35311101 8.35311101 8.35311101 8.35311101 8.35311101 8.35311101 8.35311101 8.35311101 8.35311101 8.35311101 8.35311101 8.35311101 8.35311101 8.35311101 8.35311101 8.35311101 8.35311101 8.35311101 8.35311101 8.35311101 8.35311101 8.34904702 8.34680330 8.34596799 8.34596799 8.34680330 8.34904702 8.35311101 8.35311101 8.35311101 8.35311101 8.35311101 8.35311101 8.35311101 8.35311101 8.35311101 8.35311101 8.35311101 8.35311101 8.35311101 8.35311101 8.35311101 8.35311101 8.35311101 8.35311101 8.35311101 8.35311101 8.35311101 8.35311101 8.35311101 8.35311101 8.35311101 8.35311101 8.35311101 8.35311101 8.35311101 8.35311101 8.35311101 8.35311101 8.35311101 8.35311101 8.35311101 8.35311101 8.35311101 8.35311101 8.35311101 8.35311101 8.35311101 8.35311101 8.35311101 8.35311101 8.35311101 8.35311101 8.35311101 8.35311101 8.35311101 8.35311101 8.35311101 8.35311101 8.35311101 8.35311101 8.35311101 8.35311101 8.35311101 8.35311101 8.35311101 8.35311101 8.35311101 8.35311101 8.35311101 8.35311101 8.35311101 8.35311101 8.35311101 8.35311101 8.35311101 8.35311101 8.35311101 8.35311101 8.35311101 8.35311101 8.35311101 8.35311101 8.35311101 8.35311101 8.35311101 8.35311101 8.35311101 8.35311101 8.35311101 8.35311101 8.35311101 8.35311101 8.35311101 8.35311101 8.35311101 8.35311101 8.35311101 8.35311101 8.35311101 8.35311101 8.35311101 8.35311101 8.35311101 8.35311101 8.35311101 8.35311101 8.35311101 8.35311101 8.35311101 8.35311101 8.35311101 8.35311101 8.35311101 8.35311101 8.35311101 8.35311101 8.35311101 8.35311101 8.35311101 8.35311101 8.35311101 8.35311101 8.35311101 8.35311101 8.35311101 8.35311101 8.35311101 8.35311101 8.35311101 8.35311101 8.35311101 8.35311101 8.35311101 8.35311101 8.35311101 8.35311101 8.35311101 8.35311101 8.35311101 8.35311101 8.35311101 8.35311101 8.35311101 8.35311101 8.35311101 8.35311101 8.35311101 8.35311101 8.35311101 8.35311101 8.35311101 8.35311101 8.35311101 8.35311101 8.35311101 8.35311101 8.35311101 8.35311101 8.35311101 8.35311101 8.35311101 8.35311101 8.35311101 8.35311101 8.35311101 8.35311101 8.35311101 8.35311101 8.35311101 8.35311101 8.35311101 8.35311101 8.35311101 8.35311101 8.35311101 8.35311101 8.35311101 8.35311101 8.35311101 8.35311101 8.35311101 8.35311101 8.35311101 8.35311101 8.35311101 8.35311101 8.35311101 8.35311101 8.35311101 8.35311101 8.35311101 8.35311101 8.35311101 8.35311101 8.35311101 8.35311101 8.35311101 8.35311101 8.35311101 8.35311101 8.35311101 8.35311101 8.35311101 8.35311101 8.35311101 8.35311101 8.35311101 8.35311101 8.35311101 8.35311101 8.35311101 8.35311101 8.35311101 8.35311101 8.35311101 8.35311101 8.35311101 8.35311101 8.35311101 8.35311101 8.35311101 8.35311101 8.35311101 8.35311101 8.35311101 8.35311101 8.35311101 8.35311101 8.35311101 8.35311101 8.35311101 8.35311101 8.35311101 8.35311101 8.35311101 8.35311101 8.35311101 8.35311101 8.35311101 8.35311101 8.35311101 8.35311101 8.35311101 8.35311101 8.35311101 8.35311101 8.35311101 8.35311101 8.35311101 8.35311101 8.35311101 8.35311101 8.35311101 8.35311101 8.35311101 8.35311101 8.35311101 8.35311101 8.35311101 8.35311101 8.35311101 8.35311101 8.35311101 8.35311101 8.35311101 8.35311101 8.35311101 8.35311101 8.35311101 8.35311101 8.35311101 8.35311101 8.35311101 8.35311101 8.35311101 8.35311101 8.35311101 8.35311101 8.35311101 8.35311101 8.35311101 8.35311101 8.35311101 8.35311101 8.35311101 8.35311101 8.35311101 8.35311101 8.35311101 8.35311101 8.35311101 8.35311101 8.35311101 8.35311101 8.35311101 8.35311101 8.35311101 8.35311101 8.35311101 8.35311101 8.35311101 8.35311101 8.35311101 8.35311101 8.35311101 8.35311101 8.35311101 8.35311101 8.35311101 8.35311101 8.35311101 8.35311101 8.35311101 8.35311101 8.35311101 8.35311101 8.35311101 8.35311101 8.35311101 8.35311101 8.35311101 8.35311101 8.35311101 8.35311101 8.35311101 8.35311101 8.35311101 8.35311101 8.35311101 8.35311101 8.35311101 8.35311101 8.35311101 8.35311101 8.35311101 8.35311101 8.35311101 8.35311101 8.35311101 8.35311101 8.35311101 8.35311101 8.35311101 