# vtk DataFile Version 3.0
VTK - Matlab export
ASCII
DATASET STRUCTURED_POINTS
DIMENSIONS 40 40 1
SPACING 1 1 1
ORIGIN 0 0 0
POINT_DATA 1600
SCALARS Temperature float 1
LOOKUP_TABLE default
200.00000000 200.00000000 200.00000000 200.00000000 200.00000000 200.00000000 200.00000000 200.00000000 200.00000000 200.00000000 200.00000000 200.00000000 200.00000000 200.00000000 200.00000000 200.00000000 200.00000000 200.00000000 200.00000000 200.00000000 200.00000000 200.00000000 200.00000000 200.00000000 200.00000000 200.00000000 200.00000000 200.00000000 200.00000000 200.00000000 200.00000000 200.00000000 200.00000000 200.00000000 200.00000000 200.00000000 200.00000000 200.00000000 200.00000000 200.00000000 200.00000000 200.00000000 200.00000000 200.00000000 200.00000000 200.00000000 200.00000000 200.00000000 200.00000000 200.00000000 200.00000000 200.00000000 200.00000000 200.00000000 200.00000000 200.00000000 200.00000000 200.00000000 200.00000000 200.00000000 200.00000000 200.00000000 200.00000000 200.00000000 200.00000000 200.00000000 200.00000000 200.00000000 200.00000000 200.00000000 200.00000000 200.00000000 200.00000000 200.00000000 200.00000000 200.00000000 200.00000000 200.00000000 200.00000000 200.00000000 200.00000000 200.00000000 200.00000000 200.00000000 200.00000000 200.00000000 200.00000000 200.00000000 200.00000000 200.00000000 200.00000000 200.00000000 200.00000000 200.00000000 200.00000000 200.00000000 200.00000000 200.00000000 200.00000000 200.00000000 200.00000000 200.00000000 200.00000000 200.00000000 200.00000000 200.00000000 200.00000000 200.00000000 200.00000000 200.00000000 200.00000000 200.00000000 200.00000000 200.00000000 200.00000000 200.00000000 200.00000000 200.00000000 200.00000000 200.00000000 200.00000000 200.00000000 200.00000000 200.00000000 200.00000000 200.00000000 200.00000000 200.00000000 200.00000000 200.00000000 200.00000000 200.00000000 200.00000000 200.00000000 200.00000000 200.00000000 200.00000000 200.00000000 200.00000000 200.00000000 200.00000000 200.00000000 200.00000000 200.00000000 200.00000000 200.00000000 200.00000000 200.00000000 200.00000000 200.00000000 200.00000000 200.00000000 200.00000000 200.00000000 200.00000000 200.00000000 200.00000000 200.00000000 200.00000000 200.00000000 200.00000000 200.00000000 200.00000000 200.00000000 200.00000000 200.00000000 200.00000000 200.00000000 200.00000000 200.00000000 200.00000000 200.00000000 200.00000000 200.00000000 200.00000000 200.00000000 200.00000000 200.00000000 200.00000000 200.00000000 200.00000000 200.00000000 200.00000000 200.00000000 200.00000000 200.00000000 200.00000000 200.00000000 200.00000000 200.00000000 200.00000000 200.00000000 200.00000000 200.00000000 200.00000000 200.00000000 200.00000000 200.00000000 200.00000000 200.00000000 200.00000000 200.00000000 200.00000000 200.00000000 200.00000000 200.00000000 200.00000000 200.00000000 200.00000000 200.00000000 200.00000000 200.00000000 200.00000000 200.00000000 200.00000000 200.00000000 200.00000000 200.00000000 200.00000000 200.00000000 200.00000000 200.00000000 200.00000000 200.00000000 200.00000000 200.00000000 200.00000000 200.00000000 200.00000000 200.00000000 200.00000000 200.00000000 200.00000000 200.00000000 200.00000000 200.00000000 200.00000000 200.00000000 200.00000000 200.00000000 200.00000000 200.00000000 200.00000000 200.00000000 200.00000000 200.00000000 200.00000000 200.00000000 200.00000000 200.00000000 200.00000000 200.00000000 200.00000000 200.00000000 200.00000000 200.00000000 200.00000000 200.00000000 200.00000000 200.00000000 200.00000000 200.00000000 200.00000000 200.00000000 200.00000000 200.00000000 200.00000000 200.00000000 200.00000000 200.00000000 200.00000000 200.00000000 200.00000000 200.00000000 200.00000000 200.00000000 200.00000000 200.00000000 200.00000000 200.00000000 200.00000000 200.00000000 200.00000000 200.00000000 200.00000000 200.00000000 200.00000000 200.00000000 200.00000000 200.00000000 200.00000000 200.00000000 200.00000000 200.00000000 200.00000000 200.00000000 200.00000000 200.00000000 200.00000000 200.00000000 200.00000000 200.00000000 200.00000000 200.00000000 200.00000000 200.00000000 200.00000000 200.00000000 200.00000000 200.00000000 200.00000000 200.00000000 200.00000000 200.00000000 200.00000000 200.00000000 200.00000000 200.00000000 200.00000000 200.00000000 200.00000000 200.00000000 200.00000000 200.00000000 200.00000000 200.00000000 200.00000000 200.00000000 200.00000000 200.00000000 200.00000000 200.00000000 200.00000000 200.00000000 200.00000000 200.00000000 200.00000000 226.81365558 241.27135215 246.57270971 246.57270971 241.27135215 226.81365558 200.00000000 200.00000000 200.00000000 200.00000000 200.00000000 200.00000000 200.00000000 200.00000000 200.00000000 200.00000000 200.00000000 200.00000000 200.00000000 200.00000000 200.00000000 200.00000000 200.00000000 200.00000000 200.00000000 200.00000000 200.00000000 200.00000000 200.00000000 200.00000000 200.00000000 200.00000000 200.00000000 200.00000000 200.00000000 227.15648282 247.91529013 260.92074589 269.93917866 278.20165156 291.26593961 301.79618779 306.88174387 306.88174387 301.79618779 291.26593961 278.20165156 269.93917866 260.92074589 247.91529013 227.15648282 200.00000000 200.00000000 200.00000000 200.00000000 200.00000000 200.00000000 200.00000000 200.00000000 200.00000000 200.00000000 200.00000000 200.00000000 200.00000000 200.00000000 200.00000000 200.00000000 200.00000000 200.00000000 200.00000000 200.00000000 200.00000000 200.00000000 239.20947058 262.22650416 286.16018565 308.57346168 326.28898130 339.97776503 351.29253736 361.78061162 369.89225269 374.11601944 374.11601944 369.89225269 361.78061162 351.29253736 339.97776503 326.28898130 308.57346168 286.16018565 262.22650416 239.20947058 200.00000000 200.00000000 200.00000000 200.00000000 200.00000000 200.00000000 200.00000000 200.00000000 200.00000000 200.00000000 200.00000000 200.00000000 200.00000000 200.00000000 200.00000000 200.00000000 200.00000000 200.00000000 235.29622740 262.16572030 295.14065120 323.85129394 349.89957013 373.19192435 392.57947471 408.11064111 420.49304472 430.32888918 437.32871103 440.94641024 440.94641024 437.32871103 430.32888918 420.49304472 408.11064111 392.57947471 373.19192435 349.89957013 323.85129394 295.14065120 262.16572030 235.29622740 200.00000000 200.00000000 200.00000000 200.00000000 200.00000000 200.00000000 200.00000000 200.00000000 200.00000000 200.00000000 200.00000000 200.00000000 200.00000000 200.00000000 200.00000000 243.84255181 283.21633872 318.99104690 353.64361501 384.81125064 412.22502813 435.83877409 455.41754885 471.11169472 483.36443034 492.57032870 498.80529788 501.96075499 501.96075499 498.80529788 492.57032870 483.36443034 471.11169472 455.41754885 435.83877409 412.22502813 384.81125064 353.64361501 318.99104690 283.21633872 243.84255181 200.00000000 200.00000000 200.00000000 200.00000000 200.00000000 200.00000000 200.00000000 200.00000000 200.00000000 200.00000000 200.00000000 200.00000000 220.44743212 251.17526408 292.78322729 334.61411804 373.98621575 410.19030419 442.17837435 469.62445405 492.59445912 511.28045577 526.04577380 537.35384071 545.60917672 551.04500380 553.75004456 553.75004456 551.04500380 545.60917672 537.35384071 526.04577380 511.28045577 492.59445912 469.62445405 442.17837435 410.19030419 373.98621575 334.61411804 292.78322729 251.17526408 220.44743212 200.00000000 200.00000000 200.00000000 200.00000000 200.00000000 200.00000000 200.00000000 200.00000000 200.00000000 200.00000000 249.27118424 294.02118177 339.69988701 384.02975877 425.06888927 461.68230405 493.20146191 519.52625483 540.95054254 557.95685716 571.11320906 580.98277574 588.03354028 592.58640820 594.82323674 594.82323674 592.58640820 588.03354028 580.98277574 571.11320906 557.95685716 540.95054254 519.52625483 493.20146191 461.68230405 425.06888927 384.02975877 339.69988701 294.02118177 249.27118424 200.00000000 200.00000000 200.00000000 200.00000000 200.00000000 200.00000000 200.00000000 200.00000000 200.00000000 238.17963720 285.06616410 333.88448233 382.42743757 428.35917083 469.85972531 505.86252414 535.98491900 560.41890271 579.72699815 594.63329762 605.87783835 614.12208383 619.89134590 623.55415913 625.33396794 625.33396794 623.55415913 619.89134590 614.12208383 605.87783835 594.63329762 579.72699815 560.41890271 535.98491900 505.86252414 469.85972531 428.35917083 382.42743757 333.88448233 285.06616410 238.17963720 200.00000000 200.00000000 200.00000000 200.00000000 200.00000000 200.00000000 200.00000000 226.63942652 267.90169989 316.93031368 368.40780307 418.81018497 465.48508411 506.64254817 541.39316948 569.64061580 591.87383282 608.91256687 621.67980554 631.04586763 637.74249101 642.32868741 645.19174162 646.56807735 646.56807735 645.19174162 642.32868741 637.74249101 631.04586763 621.67980554 608.91256687 591.87383282 569.64061580 541.39316948 506.64254817 465.48508411 418.81018497 368.40780307 316.93031368 267.90169989 226.63942652 200.00000000 200.00000000 200.00000000 200.00000000 200.00000000 200.00000000 241.55718642 289.36110515 341.86105643 395.58467335 447.19308211 494.04826893 534.46828882 567.77299809 594.13303427 614.29808881 629.30048296 640.21239832 647.99176414 653.41032298 657.03899160 659.26543879 660.32410621 660.32410621 659.26543879 657.03899160 653.41032298 647.99176414 640.21239832 629.30048296 614.29808881 594.13303427 567.77299809 534.46828882 494.04826893 447.19308211 395.58467335 341.86105643 289.36110515 241.55718642 200.00000000 200.00000000 200.00000000 200.00000000 200.00000000 200.00000000 251.06146821 303.68282038 358.92041482 414.23601198 466.54856061 513.32017212 552.99519337 585.07485805 609.93733001 628.52437529 642.01703379 651.58446424 658.23547774 662.75968735 665.72751650 667.51943222 668.36281936 668.36281936 667.51943222 665.72751650 662.75968735 658.23547774 651.58446424 642.01703379 628.52437529 609.93733001 585.07485805 552.99519337 513.32017212 466.54856061 414.23601198 358.92041482 303.68282038 251.06146821 200.00000000 200.00000000 200.00000000 200.00000000 200.00000000 215.05154057 258.74033196 311.47028213 367.68970254 423.72762542 476.33977130 522.99968045 562.22055086 593.60576915 617.64642272 635.38560905 648.08021477 656.94647397 663.01575327 667.08341465 669.71672255 671.29012369 672.02571260 672.02571260 671.29012369 669.71672255 667.08341465 663.01575327 656.94647397 648.08021477 635.38560905 617.64642272 593.60576915 562.22055086 522.99968045 476.33977130 423.72762542 367.68970254 311.47028213 258.74033196 215.05154057 200.00000000 200.00000000 200.00000000 200.00000000 215.05154057 258.74033196 311.47028213 367.68970254 423.72762542 476.33977130 522.99968045 562.22055086 593.60576915 617.64642272 635.38560905 648.08021477 656.94647397 663.01575327 667.08341465 669.71672255 671.29012369 672.02571260 672.02571260 671.29012369 669.71672255 667.08341465 663.01575327 656.94647397 648.08021477 635.38560905 617.64642272 593.60576915 562.22055086 522.99968045 476.33977130 423.72762542 367.68970254 311.47028213 258.74033196 215.05154057 200.00000000 200.00000000 200.00000000 200.00000000 200.00000000 251.06146821 303.68282038 358.92041482 414.23601198 466.54856061 513.32017212 552.99519337 585.07485805 609.93733001 628.52437529 642.01703379 651.58446424 658.23547774 662.75968735 665.72751650 667.51943222 668.36281936 668.36281936 667.51943222 665.72751650 662.75968735 658.23547774 651.58446424 642.01703379 628.52437529 609.93733001 585.07485805 552.99519337 513.32017212 466.54856061 414.23601198 358.92041482 303.68282038 251.06146821 200.00000000 200.00000000 200.00000000 200.00000000 200.00000000 200.00000000 241.55718642 289.36110515 341.86105643 395.58467335 447.19308211 494.04826893 534.46828882 567.77299809 594.13303427 614.29808881 629.30048296 640.21239832 647.99176414 653.41032298 657.03899160 659.26543879 660.32410621 660.32410621 659.26543879 657.03899160 653.41032298 647.99176414 640.21239832 629.30048296 614.29808881 594.13303427 567.77299809 534.46828882 494.04826893 447.19308211 395.58467335 341.86105643 289.36110515 241.55718642 200.00000000 200.00000000 200.00000000 200.00000000 200.00000000 200.00000000 226.63942652 267.90169989 316.93031368 368.40780307 418.81018497 465.48508411 506.64254817 541.39316948 569.64061580 591.87383282 608.91256687 621.67980554 631.04586763 637.74249101 642.32868741 645.19174162 646.56807735 646.56807735 645.19174162 642.32868741 637.74249101 631.04586763 621.67980554 608.91256687 591.87383282 569.64061580 541.39316948 506.64254817 465.48508411 418.81018497 368.40780307 316.93031368 267.90169989 226.63942652 200.00000000 200.00000000 200.00000000 200.00000000 200.00000000 200.00000000 200.00000000 238.17963720 285.06616410 333.88448233 382.42743757 428.35917083 469.85972531 505.86252414 535.98491900 560.41890271 579.72699815 594.63329762 605.87783835 614.12208383 619.89134590 623.55415913 625.33396794 625.33396794 623.55415913 619.89134590 614.12208383 605.87783835 594.63329762 579.72699815 560.41890271 535.98491900 505.86252414 469.85972531 428.35917083 382.42743757 333.88448233 285.06616410 238.17963720 200.00000000 200.00000000 200.00000000 200.00000000 200.00000000 200.00000000 200.00000000 200.00000000 200.00000000 249.27118424 294.02118177 339.69988701 384.02975877 425.06888927 461.68230405 493.20146191 519.52625483 540.95054254 557.95685716 571.11320906 580.98277574 588.03354028 592.58640820 594.82323674 594.82323674 592.58640820 588.03354028 580.98277574 571.11320906 557.95685716 540.95054254 519.52625483 493.20146191 461.68230405 425.06888927 384.02975877 339.69988701 294.02118177 249.27118424 200.00000000 200.00000000 200.00000000 200.00000000 200.00000000 200.00000000 200.00000000 200.00000000 200.00000000 200.00000000 220.44743212 251.17526408 292.78322729 334.61411804 373.98621575 410.19030419 442.17837435 469.62445405 492.59445912 511.28045577 526.04577380 537.35384071 545.60917672 551.04500380 553.75004456 553.75004456 551.04500380 545.60917672 537.35384071 526.04577380 511.28045577 492.59445912 469.62445405 442.17837435 410.19030419 373.98621575 334.61411804 292.78322729 251.17526408 220.44743212 200.00000000 200.00000000 200.00000000 200.00000000 200.00000000 200.00000000 200.00000000 200.00000000 200.00000000 200.00000000 200.00000000 200.00000000 243.84255181 283.21633872 318.99104690 353.64361501 384.81125064 412.22502813 435.83877409 455.41754885 471.11169472 483.36443034 492.57032870 498.80529788 501.96075499 501.96075499 498.80529788 492.57032870 483.36443034 471.11169472 455.41754885 435.83877409 412.22502813 384.81125064 353.64361501 318.99104690 283.21633872 243.84255181 200.00000000 200.00000000 200.00000000 200.00000000 200.00000000 200.00000000 200.00000000 200.00000000 200.00000000 200.00000000 200.00000000 200.00000000 200.00000000 200.00000000 200.00000000 235.29622740 262.16572030 295.14065120 323.85129394 349.89957013 373.19192435 392.57947471 408.11064111 420.49304472 430.32888918 437.32871103 440.94641024 440.94641024 437.32871103 430.32888918 420.49304472 408.11064111 392.57947471 373.19192435 349.89957013 323.85129394 295.14065120 262.16572030 235.29622740 200.00000000 200.00000000 200.00000000 200.00000000 200.00000000 200.00000000 200.00000000 200.00000000 200.00000000 200.00000000 200.00000000 200.00000000 200.00000000 200.00000000 200.00000000 200.00000000 200.00000000 200.00000000 239.20947058 262.22650416 286.16018565 308.57346168 326.28898130 339.97776503 351.29253736 361.78061162 369.89225269 374.11601944 374.11601944 369.89225269 361.78061162 351.29253736 339.97776503 326.28898130 308.57346168 286.16018565 262.22650416 239.20947058 200.00000000 200.00000000 200.00000000 200.00000000 200.00000000 200.00000000 200.00000000 200.00000000 200.00000000 200.00000000 200.00000000 200.00000000 200.00000000 200.00000000 200.00000000 200.00000000 200.00000000 200.00000000 200.00000000 200.00000000 200.00000000 200.00000000 227.15648282 247.91529013 260.92074589 269.93917866 278.20165156 291.26593961 301.79618779 306.88174387 306.88174387 301.79618779 291.26593961 278.20165156 269.93917866 260.92074589 247.91529013 227.15648282 200.00000000 200.00000000 200.00000000 200.00000000 200.00000000 200.00000000 200.00000000 200.00000000 200.00000000 200.00000000 200.00000000 200.00000000 200.00000000 200.00000000 200.00000000 200.00000000 200.00000000 200.00000000 200.00000000 200.00000000 200.00000000 200.00000000 200.00000000 200.00000000 200.00000000 200.00000000 200.00000000 200.00000000 200.00000000 226.81365558 241.27135215 246.57270971 246.57270971 241.27135215 226.81365558 200.00000000 200.00000000 200.00000000 200.00000000 200.00000000 200.00000000 200.00000000 200.00000000 200.00000000 200.00000000 200.00000000 200.00000000 200.00000000 200.00000000 200.00000000 200.00000000 200.00000000 200.00000000 200.00000000 200.00000000 200.00000000 200.00000000 200.00000000 200.00000000 200.00000000 200.00000000 200.00000000 200.00000000 200.00000000 200.00000000 200.00000000 200.00000000 200.00000000 200.00000000 200.00000000 200.00000000 200.00000000 200.00000000 200.00000000 200.00000000 200.00000000 200.00000000 200.00000000 200.00000000 200.00000000 200.00000000 200.00000000 200.00000000 200.00000000 200.00000000 200.00000000 200.00000000 200.00000000 200.00000000 200.00000000 200.00000000 200.00000000 200.00000000 200.00000000 200.00000000 200.00000000 200.00000000 200.00000000 200.00000000 200.00000000 200.00000000 200.00000000 200.00000000 200.00000000 200.00000000 200.00000000 200.00000000 200.00000000 200.00000000 200.00000000 200.00000000 200.00000000 200.00000000 200.00000000 200.00000000 200.00000000 200.00000000 200.00000000 200.00000000 200.00000000 200.00000000 200.00000000 200.00000000 200.00000000 200.00000000 200.00000000 200.00000000 200.00000000 200.00000000 200.00000000 200.00000000 200.00000000 200.00000000 200.00000000 200.00000000 200.00000000 200.00000000 200.00000000 200.00000000 200.00000000 200.00000000 200.00000000 200.00000000 200.00000000 200.00000000 200.00000000 200.00000000 200.00000000 200.00000000 200.00000000 200.00000000 200.00000000 200.00000000 200.00000000 200.00000000 200.00000000 200.00000000 200.00000000 200.00000000 200.00000000 200.00000000 200.00000000 200.00000000 200.00000000 200.00000000 200.00000000 200.00000000 200.00000000 200.00000000 200.00000000 200.00000000 200.00000000 200.00000000 200.00000000 200.00000000 200.00000000 200.00000000 200.00000000 200.00000000 200.00000000 200.00000000 200.00000000 200.00000000 200.00000000 200.00000000 200.00000000 200.00000000 200.00000000 200.00000000 200.00000000 200.00000000 200.00000000 200.00000000 200.00000000 200.00000000 200.00000000 200.00000000 200.00000000 200.00000000 200.00000000 200.00000000 200.00000000 200.00000000 200.00000000 200.00000000 200.00000000 200.00000000 200.00000000 200.00000000 200.00000000 200.00000000 200.00000000 200.00000000 200.00000000 200.00000000 200.00000000 200.00000000 200.00000000 200.00000000 200.00000000 200.00000000 200.00000000 200.00000000 200.00000000 200.00000000 200.00000000 200.00000000 200.00000000 200.00000000 200.00000000 200.00000000 200.00000000 200.00000000 200.00000000 200.00000000 200.00000000 200.00000000 200.00000000 200.00000000 200.00000000 200.00000000 200.00000000 200.00000000 200.00000000 200.00000000 200.00000000 200.00000000 200.00000000 200.00000000 200.00000000 200.00000000 200.00000000 200.00000000 200.00000000 200.00000000 200.00000000 200.00000000 200.00000000 200.00000000 200.00000000 200.00000000 200.00000000 200.00000000 200.00000000 200.00000000 200.00000000 200.00000000 200.00000000 200.00000000 200.00000000 200.00000000 200.00000000 200.00000000 200.00000000 200.00000000 200.00000000 200.00000000 200.00000000 200.00000000 200.00000000 200.00000000 200.00000000 200.00000000 200.00000000 200.00000000 200.00000000 200.00000000 200.00000000 200.00000000 200.00000000 200.00000000 200.00000000 200.00000000 200.00000000 200.00000000 200.00000000 200.00000000 200.00000000 200.00000000 200.00000000 200.00000000 200.00000000 200.00000000 200.00000000 200.00000000 200.00000000 200.00000000 200.00000000 200.00000000 200.00000000 200.00000000 200.00000000 200.00000000 200.00000000 200.00000000 200.00000000 200.00000000 200.00000000 200.00000000 200.00000000 200.00000000 200.00000000 200.00000000 200.00000000 200.00000000 200.00000000 200.00000000 200.00000000 200.00000000 200.00000000 200.00000000 200.00000000 200.00000000 200.00000000 200.00000000 200.00000000 200.00000000 200.00000000 200.00000000 200.00000000 200.00000000 200.00000000 200.00000000 200.00000000 200.00000000 200.00000000 200.00000000 200.00000000 200.00000000 200.00000000 200.00000000 200.00000000 200.00000000 200.00000000 200.00000000 200.00000000 200.00000000 200.00000000 200.00000000 200.00000000 200.00000000 200.00000000 200.00000000 200.00000000 200.00000000 200.00000000 200.00000000 200.00000000 200.00000000 200.00000000 200.00000000 200.00000000 