# vtk DataFile Version 3.0
VTK - Matlab export
ASCII
DATASET STRUCTURED_POINTS
DIMENSIONS 40 40 1
SPACING 1 1 1
ORIGIN 0 0 0
POINT_DATA 1600
SCALARS lambda-2 float 1
LOOKUP_TABLE default
8.35311101 8.35311101 8.35311101 8.35311101 8.35311101 8.35311101 8.35311101 8.35311101 8.35311101 8.35311101 8.35311101 8.35311101 8.35311101 8.35311101 8.35311101 8.35311101 8.35311101 8.35311101 8.35311101 8.35311101 8.35311101 8.35311101 8.35311101 8.35311101 8.35311101 8.35311101 8.35311101 8.35311101 8.35311101 8.35311101 8.35311101 8.35311101 8.35311101 8.35311101 8.35311101 8.35311101 8.35311101 8.35311101 8.35311101 8.35311101 8.35311101 8.35311101 8.35311101 8.35311101 8.35311101 8.35311101 8.35311101 8.35311101 8.35311101 8.35311101 8.35311101 8.35311101 8.35311101 8.35311101 8.35311101 8.35311101 8.35311101 8.35311101 8.35311101 8.35311101 8.35311101 8.35311101 8.35311101 8.35311101 8.35311101 8.35311101 8.35311101 8.35311101 8.35311101 8.35311101 8.35311101 8.35311101 8.35311101 8.35311101 8.35311101 8.35311101 8.35311101 8.35311101 8.35311101 8.35311101 8.35311101 8.35311101 8.35311101 8.35311101 8.35311101 8.35311101 8.35311101 8.35311101 8.35311101 8.35311101 8.35311101 8.35311101 8.35311101 8.35311101 8.35311101 8.35311101 8.35311101 8.35311101 8.35311101 8.35311101 8.35311101 8.35311101 8.35311101 8.35311101 8.35311101 8.35311101 8.35311101 8.35311101 8.35311101 8.35311101 8.35311101 8.35311101 8.35311101 8.35311101 8.35311101 8.35311101 8.35311101 8.35311101 8.35311101 8.35311101 8.35311101 8.35311101 8.35311101 8.35311101 8.35311101 8.35311101 8.35311101 8.35311101 8.35311101 8.35311101 8.35311101 8.35311101 8.35311101 8.35311101 8.35311101 8.35311101 8.35311101 8.35311101 8.35311101 8.35311101 8.35311101 8.35311101 8.35311101 8.35311101 8.35311101 8.35311101 8.35311101 8.35311101 8.35311101 8.35311101 8.35311101 8.35311101 8.35311101 8.35311101 8.35311101 8.35311101 8.35311101 8.35311101 8.35311101 8.35311101 8.35311101 8.35311101 8.35311101 8.35311101 8.35311101 8.35311101 8.35311101 8.35311101 8.35311101 8.35311101 8.35311101 8.35311101 8.35311101 8.35311101 8.35311101 8.35311101 8.35311101 8.35311101 8.35311101 8.35311101 8.35311101 8.35311101 8.35311101 8.35311101 8.35311101 8.35311101 8.35311101 8.35311101 8.35311101 8.35311101 8.35311101 8.35311101 8.35311101 8.35311101 8.35311101 8.35311101 8.35311101 8.35311101 8.35311101 8.35311101 8.35311101 8.35311101 8.35311101 8.35311101 8.35311101 8.35311101 8.35311101 8.35311101 8.35311101 8.35311101 8.35311101 8.35311101 8.35311101 8.35311101 8.35311101 8.35311101 8.35311101 8.35311101 8.35311101 8.35311101 8.35311101 8.35311101 8.35311101 8.35311101 8.35311101 8.35311101 8.35311101 8.35311101 8.35311101 8.35311101 8.35311101 8.35311101 8.35311101 8.35311101 8.35311101 8.35311101 8.35311101 8.35311101 8.35311101 8.35311101 8.35311101 8.35311101 8.35311101 8.35311101 8.35311101 8.35311101 8.35311101 8.35311101 8.35311101 8.35311101 8.35311101 8.35311101 8.35311101 8.35311101 8.35311101 8.35311101 8.35311101 8.35311101 8.35311101 8.35311101 8.35311101 8.35311101 8.35311101 8.35311101 8.35311101 8.35311101 8.35311101 8.35311101 8.35311101 8.35311101 8.35311101 8.35311101 8.35311101 8.35311101 8.35311101 8.35311101 8.35311101 8.35311101 8.35311101 8.35311101 8.35311101 8.35311101 8.35311101 8.35311101 8.35311101 8.35311101 8.35311101 8.35311101 8.35311101 8.35311101 8.35311101 8.35311101 8.35311101 8.35311101 8.35311101 8.35311101 8.35311101 8.35311101 8.35311101 8.35311101 8.35311101 8.35311101 8.35311101 8.35311101 8.35311101 8.35311101 8.35311101 8.35311101 8.35311101 8.35311101 8.35311101 8.35311101 8.35311101 8.35311101 8.35311101 8.35311101 8.35311101 8.35311101 8.35311101 8.35311101 8.35311101 8.35311101 8.35311101 8.35311101 8.35311101 8.35311101 8.35311101 8.35311101 8.35311101 8.35311101 8.35311101 8.35311101 8.35311101 8.35311101 8.35311101 8.35311101 8.35311101 8.35003290 8.34835118 8.34773003 8.34773003 8.34835118 8.35003290 8.35311101 8.35311101 8.35311101 8.35311101 8.35311101 8.35311101 8.35311101 8.35311101 8.35311101 8.35311101 8.35311101 8.35311101 8.35311101 8.35311101 8.35311101 8.35311101 8.35311101 8.35311101 8.35311101 8.35311101 8.35311101 8.35311101 8.35311101 8.35311101 8.35311101 8.35311101 8.35311101 8.35311101 8.35311101 8.34986001 8.34743575 8.34599840 8.34507184 8.34423600 8.34280727 8.34163179 8.34106238 8.34106238 8.34163179 8.34280727 8.34423600 8.34507184 8.34599840 8.34743575 8.34986001 8.35311101 8.35311101 8.35311101 8.35311101 8.35311101 8.35311101 8.35311101 8.35311101 8.35311101 8.35311101 8.35311101 8.35311101 8.35311101 8.35311101 8.35311101 8.35311101 8.35311101 8.35311101 8.35311101 8.35311101 8.35311101 8.35311101 8.34827222 8.34557368 8.34288778 8.34048456 8.33872308 8.33747711 8.33649218 8.33553582 8.33476788 8.33436390 8.33436390 8.33476788 8.33553582 8.33649218 8.33747711 8.33872308 8.34048456 8.34288778 8.34557368 8.34827222 8.35311101 8.35311101 8.35311101 8.35311101 8.35311101 8.35311101 8.35311101 8.35311101 8.35311101 8.35311101 8.35311101 8.35311101 8.35311101 8.35311101 8.35311101 8.35311101 8.35311101 8.35311101 8.34857216 8.34530275 8.34146565 8.33838170 8.33581613 8.33371761 8.33215977 8.33106302 8.33026804 8.32964243 8.32918465 8.32894435 8.32894435 8.32918465 8.32964243 8.33026804 8.33106302 8.33215977 8.33371761 8.33581613 8.33838170 8.34146565 8.34530275 8.34857216 8.35311101 8.35311101 8.35311101 8.35311101 8.35311101 8.35311101 8.35311101 8.35311101 8.35311101 8.35311101 8.35311101 8.35311101 8.35311101 8.35311101 8.35311101 8.34733505 8.34242840 8.33833733 8.33473931 8.33189350 8.32974944 8.32820387 8.32717506 8.32654130 8.32615977 8.32591569 8.32575800 8.32567865 8.32567865 8.32575800 8.32591569 8.32615977 8.32654130 8.32717506 8.32820387 8.32974944 8.33189350 8.33473931 8.33833733 8.34242840 8.34733505 8.35311101 8.35311101 8.35311101 8.35311101 8.35311101 8.35311101 8.35311101 8.35311101 8.35311101 8.35311101 8.35311101 8.35311101 8.35024836 8.34612710 8.34085588 8.33601308 8.33200735 8.32889191 8.32669561 8.32531092 8.32456641 8.32428684 8.32430141 8.32445773 8.32464163 8.32478689 8.32486444 8.32486444 8.32478689 8.32464163 8.32445773 8.32430141 8.32428684 8.32456641 8.32531092 8.32669561 8.32889191 8.33200735 8.33601308 8.34085588 8.34612710 8.35024836 8.35311101 8.35311101 8.35311101 8.35311101 8.35311101 8.35311101 8.35311101 8.35311101 8.35311101 8.35311101 8.34616134 8.34024555 8.33478053 8.33017974 8.32670357 8.32439339 8.32314937 8.32276151 8.32297486 8.32354603 8.32426890 8.32498503 8.32558651 8.32601087 8.32622846 8.32622846 8.32601087 8.32558651 8.32498503 8.32426890 8.32354603 8.32297486 8.32276151 8.32314937 8.32439339 8.32670357 8.33017974 8.33478053 8.34024555 8.34616134 8.35311101 8.35311101 8.35311101 8.35311101 8.35311101 8.35311101 8.35311101 8.35311101 8.35311101 8.34752439 8.34101264 8.33481960 8.32946776 8.32536507 8.32269600 8.32140815 8.32127465 8.32197311 8.32316701 8.32456433 8.32594315 8.32715328 8.32810519 8.32875368 8.32908056 8.32908056 8.32875368 8.32810519 8.32715328 8.32594315 8.32456433 8.32316701 8.32197311 8.32127465 8.32140815 8.32269600 8.32536507 8.32946776 8.33481960 8.34101264 8.34752439 8.35311101 8.35311101 8.35311101 8.35311101 8.35311101 8.35311101 8.35311101 8.34908524 8.34307769 8.33642647 8.33022281 8.32518857 8.32174561 8.32000398 8.31979603 8.32076779 8.32249130 8.32456246 8.32666061 8.32856667 8.33015236 8.33135634 8.33215840 8.33255772 8.33255772 8.33215840 8.33135634 8.33015236 8.32856667 8.32666061 8.32456246 8.32249130 8.32076779 8.31979603 8.32000398 8.32174561 8.32518857 8.33022281 8.33642647 8.34307769 8.34908524 8.35311101 8.35311101 8.35311101 8.35311101 8.35311101 8.35311101 8.34679608 8.33985008 8.33287306 8.32671240 8.32205777 8.31928801 8.31842630 8.31919079 8.32111414 8.32368164 8.32644118 8.32906076 8.33133634 8.33316823 8.33452608 8.33541581 8.33585451 8.33585451 8.33541581 8.33452608 8.33316823 8.33133634 8.32906076 8.32644118 8.32368164 8.32111414 8.31919079 8.31842630 8.31928801 8.32205777 8.32671240 8.33287306 8.33985008 8.34679608 8.35311101 8.35311101 8.35311101 8.35311101 8.35311101 8.35311101 8.34532685 8.33769862 8.33047302 8.32437615 8.32005079 8.31782429 8.31764323 8.31913449 8.32174586 8.32490230 8.32812291 8.33107496 8.33357220 8.33554091 8.33697670 8.33790656 8.33836181 8.33836181 8.33790656 8.33697670 8.33554091 8.33357220 8.33107496 8.32812291 8.32490230 8.32174586 8.31913449 8.31764323 8.31782429 8.32005079 8.32437615 8.33047302 8.33769862 8.34532685 8.35311101 8.35311101 8.35311101 8.35311101 8.35311101 8.35078083 8.34412915 8.33652588 8.32924957 8.32321322 8.31908057 8.31715654 8.31734517 8.31922311 8.32219301 8.32564922 8.32909792 8.33220851 8.33480634 8.33683294 8.33829856 8.33924187 8.33970194 8.33970194 8.33924187 8.33829856 8.33683294 8.33480634 8.33220851 8.32909792 8.32564922 8.32219301 8.31922311 8.31734517 8.31715654 8.31908057 8.32321322 8.32924957 8.33652588 8.34412915 8.35078083 8.35311101 8.35311101 8.35311101 8.35311101 8.35078083 8.34412915 8.33652588 8.32924957 8.32321322 8.31908057 8.31715654 8.31734517 8.31922311 8.32219301 8.32564922 8.32909792 8.33220851 8.33480634 8.33683294 8.33829856 8.33924187 8.33970194 8.33970194 8.33924187 8.33829856 8.33683294 8.33480634 8.33220851 8.32909792 8.32564922 8.32219301 8.31922311 8.31734517 8.31715654 8.31908057 8.32321322 8.32924957 8.33652588 8.34412915 8.35078083 8.35311101 8.35311101 8.35311101 8.35311101 8.35311101 8.34532685 8.33769862 8.33047302 8.32437615 8.32005079 8.31782429 8.31764323 8.31913449 8.32174586 8.32490230 8.32812291 8.33107496 8.33357220 8.33554091 8.33697670 8.33790656 8.33836181 8.33836181 8.33790656 8.33697670 8.33554091 8.33357220 8.33107496 8.32812291 8.32490230 8.32174586 8.31913449 8.31764323 8.31782429 8.32005079 8.32437615 8.33047302 8.33769862 8.34532685 8.35311101 8.35311101 8.35311101 8.35311101 8.35311101 8.35311101 8.34679608 8.33985008 8.33287306 8.32671240 8.32205777 8.31928801 8.31842630 8.31919079 8.32111414 8.32368164 8.32644118 8.32906076 8.33133634 8.33316823 8.33452608 8.33541581 8.33585451 8.33585451 8.33541581 8.33452608 8.33316823 8.33133634 8.32906076 8.32644118 8.32368164 8.32111414 8.31919079 8.31842630 8.31928801 8.32205777 8.32671240 8.33287306 8.33985008 8.34679608 8.35311101 8.35311101 8.35311101 8.35311101 8.35311101 8.35311101 8.34908524 8.34307769 8.33642647 8.33022281 8.32518857 8.32174561 8.32000398 8.31979603 8.32076779 8.32249130 8.32456246 8.32666061 8.32856667 8.33015236 8.33135634 8.33215840 8.33255772 8.33255772 8.33215840 8.33135634 8.33015236 8.32856667 8.32666061 8.32456246 8.32249130 8.32076779 8.31979603 8.32000398 8.32174561 8.32518857 8.33022281 8.33642647 8.34307769 8.34908524 8.35311101 8.35311101 8.35311101 8.35311101 8.35311101 8.35311101 8.35311101 8.34752439 8.34101264 8.33481960 8.32946776 8.32536507 8.32269600 8.32140815 8.32127465 8.32197311 8.32316701 8.32456433 8.32594315 8.32715328 8.32810519 8.32875368 8.32908056 8.32908056 8.32875368 8.32810519 8.32715328 8.32594315 8.32456433 8.32316701 8.32197311 8.32127465 8.32140815 8.32269600 8.32536507 8.32946776 8.33481960 8.34101264 8.34752439 8.35311101 8.35311101 8.35311101 8.35311101 8.35311101 8.35311101 8.35311101 8.35311101 8.35311101 8.34616134 8.34024555 8.33478053 8.33017974 8.32670357 8.32439339 8.32314937 8.32276151 8.32297486 8.32354603 8.32426890 8.32498503 8.32558651 8.32601087 8.32622846 8.32622846 8.32601087 8.32558651 8.32498503 8.32426890 8.32354603 8.32297486 8.32276151 8.32314937 8.32439339 8.32670357 8.33017974 8.33478053 8.34024555 8.34616134 8.35311101 8.35311101 8.35311101 8.35311101 8.35311101 8.35311101 8.35311101 8.35311101 8.35311101 8.35311101 8.35024836 8.34612710 8.34085588 8.33601308 8.33200735 8.32889191 8.32669561 8.32531092 8.32456641 8.32428684 8.32430141 8.32445773 8.32464163 8.32478689 8.32486444 8.32486444 8.32478689 8.32464163 8.32445773 8.32430141 8.32428684 8.32456641 8.32531092 8.32669561 8.32889191 8.33200735 8.33601308 8.34085588 8.34612710 8.35024836 8.35311101 8.35311101 8.35311101 8.35311101 8.35311101 8.35311101 8.35311101 8.35311101 8.35311101 8.35311101 8.35311101 8.35311101 8.34733505 8.34242840 8.33833733 8.33473931 8.33189350 8.32974944 8.32820387 8.32717506 8.32654130 8.32615977 8.32591569 8.32575800 8.32567865 8.32567865 8.32575800 8.32591569 8.32615977 8.32654130 8.32717506 8.32820387 8.32974944 8.33189350 8.33473931 8.33833733 8.34242840 8.34733505 8.35311101 8.35311101 8.35311101 8.35311101 8.35311101 8.35311101 8.35311101 8.35311101 8.35311101 8.35311101 8.35311101 8.35311101 8.35311101 8.35311101 8.35311101 8.34857216 8.34530275 8.34146565 8.33838170 8.33581613 8.33371761 8.33215977 8.33106302 8.33026804 8.32964243 8.32918465 8.32894435 8.32894435 8.32918465 8.32964243 8.33026804 8.33106302 8.33215977 8.33371761 8.33581613 8.33838170 8.34146565 8.34530275 8.34857216 8.35311101 8.35311101 8.35311101 8.35311101 8.35311101 8.35311101 8.35311101 8.35311101 8.35311101 8.35311101 8.35311101 8.35311101 8.35311101 8.35311101 8.35311101 8.35311101 8.35311101 8.35311101 8.34827222 8.34557368 8.34288778 8.34048456 8.33872308 8.33747711 8.33649218 8.33553582 8.33476788 8.33436390 8.33436390 8.33476788 8.33553582 8.33649218 8.33747711 8.33872308 8.34048456 8.34288778 8.34557368 8.34827222 8.35311101 8.35311101 8.35311101 8.35311101 8.35311101 8.35311101 8.35311101 8.35311101 8.35311101 8.35311101 8.35311101 8.35311101 8.35311101 8.35311101 8.35311101 8.35311101 8.35311101 8.35311101 8.35311101 8.35311101 8.35311101 8.35311101 8.34986001 8.34743575 8.34599840 8.34507184 8.34423600 8.34280727 8.34163179 8.34106238 8.34106238 8.34163179 8.34280727 8.34423600 8.34507184 8.34599840 8.34743575 8.34986001 8.35311101 8.35311101 8.35311101 8.35311101 8.35311101 8.35311101 8.35311101 8.35311101 8.35311101 8.35311101 8.35311101 8.35311101 8.35311101 8.35311101 8.35311101 8.35311101 8.35311101 8.35311101 8.35311101 8.35311101 8.35311101 8.35311101 8.35311101 8.35311101 8.35311101 8.35311101 8.35311101 8.35311101 8.35311101 8.35003290 8.34835118 8.34773003 8.34773003 8.34835118 8.35003290 8.35311101 8.35311101 8.35311101 8.35311101 8.35311101 8.35311101 8.35311101 8.35311101 8.35311101 8.35311101 8.35311101 8.35311101 8.35311101 8.35311101 8.35311101 8.35311101 8.35311101 8.35311101 8.35311101 8.35311101 8.35311101 8.35311101 8.35311101 8.35311101 8.35311101 8.35311101 8.35311101 8.35311101 8.35311101 8.35311101 8.35311101 8.35311101 8.35311101 8.35311101 8.35311101 8.35311101 8.35311101 8.35311101 8.35311101 8.35311101 8.35311101 8.35311101 8.35311101 8.35311101 8.35311101 8.35311101 8.35311101 8.35311101 8.35311101 8.35311101 8.35311101 8.35311101 8.35311101 8.35311101 8.35311101 8.35311101 8.35311101 8.35311101 8.35311101 8.35311101 8.35311101 8.35311101 8.35311101 8.35311101 8.35311101 8.35311101 8.35311101 8.35311101 8.35311101 8.35311101 8.35311101 8.35311101 8.35311101 8.35311101 8.35311101 8.35311101 8.35311101 8.35311101 8.35311101 8.35311101 8.35311101 8.35311101 8.35311101 8.35311101 8.35311101 8.35311101 8.35311101 8.35311101 8.35311101 8.35311101 8.35311101 8.35311101 8.35311101 8.35311101 8.35311101 8.35311101 8.35311101 8.35311101 8.35311101 8.35311101 8.35311101 8.35311101 8.35311101 8.35311101 8.35311101 8.35311101 8.35311101 8.35311101 8.35311101 8.35311101 8.35311101 8.35311101 8.35311101 8.35311101 8.35311101 8.35311101 8.35311101 8.35311101 8.35311101 8.35311101 8.35311101 8.35311101 8.35311101 8.35311101 8.35311101 8.35311101 8.35311101 8.35311101 8.35311101 8.35311101 8.35311101 8.35311101 8.35311101 8.35311101 8.35311101 8.35311101 8.35311101 8.35311101 8.35311101 8.35311101 8.35311101 8.35311101 8.35311101 8.35311101 8.35311101 8.35311101 8.35311101 8.35311101 8.35311101 8.35311101 8.35311101 8.35311101 8.35311101 8.35311101 8.35311101 8.35311101 8.35311101 8.35311101 8.35311101 8.35311101 8.35311101 8.35311101 8.35311101 8.35311101 8.35311101 8.35311101 8.35311101 8.35311101 8.35311101 8.35311101 8.35311101 8.35311101 8.35311101 8.35311101 8.35311101 8.35311101 8.35311101 8.35311101 8.35311101 8.35311101 8.35311101 8.35311101 8.35311101 8.35311101 8.35311101 8.35311101 8.35311101 8.35311101 8.35311101 8.35311101 8.35311101 8.35311101 8.35311101 8.35311101 8.35311101 8.35311101 8.35311101 8.35311101 8.35311101 8.35311101 8.35311101 8.35311101 8.35311101 8.35311101 8.35311101 8.35311101 8.35311101 8.35311101 8.35311101 8.35311101 8.35311101 8.35311101 8.35311101 8.35311101 8.35311101 8.35311101 8.35311101 8.35311101 8.35311101 8.35311101 8.35311101 8.35311101 8.35311101 8.35311101 8.35311101 8.35311101 8.35311101 8.35311101 8.35311101 8.35311101 8.35311101 8.35311101 8.35311101 8.35311101 8.35311101 8.35311101 8.35311101 8.35311101 8.35311101 8.35311101 8.35311101 8.35311101 8.35311101 8.35311101 8.35311101 8.35311101 8.35311101 8.35311101 8.35311101 8.35311101 8.35311101 8.35311101 8.35311101 8.35311101 8.35311101 8.35311101 8.35311101 8.35311101 8.35311101 8.35311101 8.35311101 8.35311101 8.35311101 8.35311101 8.35311101 8.35311101 8.35311101 8.35311101 8.35311101 8.35311101 8.35311101 8.35311101 8.35311101 8.35311101 8.35311101 8.35311101 8.35311101 8.35311101 8.35311101 8.35311101 8.35311101 8.35311101 8.35311101 8.35311101 8.35311101 8.35311101 8.35311101 8.35311101 8.35311101 8.35311101 8.35311101 8.35311101 8.35311101 8.35311101 8.35311101 8.35311101 8.35311101 8.35311101 8.35311101 8.35311101 8.35311101 8.35311101 8.35311101 8.35311101 8.35311101 8.35311101 8.35311101 8.35311101 8.35311101 8.35311101 8.35311101 8.35311101 8.35311101 8.35311101 8.35311101 8.35311101 8.35311101 8.35311101 8.35311101 8.35311101 8.35311101 8.35311101 8.35311101 8.35311101 8.35311101 8.35311101 8.35311101 8.35311101 8.35311101 8.35311101 8.35311101 8.35311101 8.35311101 8.35311101 8.35311101 8.35311101 8.35311101 