# vtk DataFile Version 3.0
VTK - Matlab export
ASCII
DATASET STRUCTURED_POINTS
DIMENSIONS 40 40 1
SPACING 1 1 1
ORIGIN 0 0 0
POINT_DATA 1600
SCALARS Proofstrength float 1
LOOKUP_TABLE default
140.71398941 140.71398941 140.71398941 140.71398941 140.71398941 140.71398941 140.71398941 140.71398941 140.71398941 140.71398941 140.71398941 140.71398941 140.71398941 140.71398941 140.71398941 140.71398941 140.71398941 140.71398941 140.71398941 140.71398941 140.71398941 140.71398941 140.71398941 140.71398941 140.71398941 140.71398941 140.71398941 140.71398941 140.71398941 140.71398941 140.71398941 140.71398941 140.71398941 140.71398941 140.71398941 140.71398941 140.71398941 140.71398941 140.71398941 140.71398941 140.71398941 140.71398941 140.71398941 140.71398941 140.71398941 140.71398941 140.71398941 140.71398941 140.71398941 140.71398941 140.71398941 140.71398941 140.71398941 140.71398941 140.71398941 140.71398941 140.71398941 140.71398941 140.71398941 140.71398941 140.71398941 140.71398941 140.71398941 140.71398941 140.71398941 140.71398941 140.71398941 140.71398941 140.71398941 140.71398941 140.71398941 140.71398941 140.71398941 140.71398941 140.71398941 140.71398941 140.71398941 140.71398941 140.71398941 140.71398941 140.71398941 140.71398941 140.71398941 140.71398941 140.71398941 140.71398941 140.71398941 140.71398941 140.71398941 140.71398941 140.71398941 140.71398941 140.71398941 140.71398941 140.71398941 140.71398941 140.71398941 140.71398941 140.71398941 140.71398941 140.71398941 140.71398941 140.71398941 140.71398941 140.71398941 140.71398941 140.71398941 140.71398941 140.71398941 140.71398941 140.71398941 140.71398941 140.71398941 140.71398941 140.71398941 140.71398941 140.71398941 140.71398941 140.71398941 140.71398941 140.71398941 140.71398941 140.71398941 140.71398941 140.71398941 140.71398941 140.71398941 140.71398941 140.71398941 140.71398941 140.71398941 140.71398941 140.71398941 140.71398941 140.71398941 140.71398941 140.71398941 140.71398941 140.71398941 140.71398941 140.71398941 140.71398941 140.71398941 140.71398941 140.71398941 140.71398941 140.71398941 140.71398941 140.71398941 140.71398941 140.71398941 140.71398941 140.71398941 140.71398941 140.71398941 140.71398941 140.71398941 140.71398941 140.71398941 140.71398941 140.71398941 140.71398941 140.71398941 140.71398941 140.71398941 140.71398941 140.71398941 140.71398941 140.71398941 140.71398941 140.71398941 140.71398941 140.71398941 140.71398941 140.71398941 140.71398941 140.71398941 140.71398941 140.71398941 140.71398941 140.71398941 140.71398941 140.71398941 140.71398941 140.71398941 140.71398941 140.71398941 140.71398941 140.71398941 140.71398941 140.71398941 140.71398941 140.71398941 140.71398941 140.71398941 140.71398941 140.71398941 140.71398941 140.71398941 140.71398941 140.71398941 140.71398941 140.71398941 140.71398941 140.71398941 140.71398941 140.71398941 140.71398941 140.71398941 140.71398941 140.71398941 140.71398941 140.71398941 140.71398941 140.71398941 140.71398941 140.71398941 140.71398941 140.71398941 140.71398941 140.71398941 140.71398941 140.71398941 140.71398941 140.71398941 140.71398941 140.71398941 140.71398941 140.71398941 140.71398941 140.71398941 140.71398941 140.71398941 140.71398941 140.71398941 140.71398941 140.71398941 140.71398941 140.71398941 140.71398941 140.71398941 140.71398941 140.71398941 140.71398941 140.71398941 140.71398941 140.71398941 140.71398941 140.71398941 140.71398941 140.71398941 140.71398941 140.71398941 140.71398941 140.71398941 140.71398941 140.71398941 140.71398941 140.71398941 140.71398941 140.71398941 140.71398941 140.71398941 140.71398941 140.71398941 140.71398941 140.71398941 140.71398941 140.71398941 140.71398941 140.71398941 140.71398941 140.71398941 140.71398941 140.71398941 140.71398941 140.71398941 140.71398941 140.71398941 140.71398941 140.71398941 140.71398941 140.71398941 140.71398941 140.71398941 140.71398941 140.71398941 140.71398941 140.71398941 140.71398941 140.71398941 140.71398941 140.71398941 140.71398941 140.71398941 140.71398941 140.71398941 140.71398941 140.71398941 140.71398941 140.71398941 140.71398941 140.71398941 140.71398941 140.71398941 140.71398941 140.71398941 140.71398941 140.71398941 140.71398941 140.71398941 140.71398941 140.71398941 140.71398941 140.71398941 140.71398941 140.71398941 140.71398941 140.71398941 140.71398941 140.71398941 140.71398941 140.71398941 140.71398941 140.71398941 140.71398941 140.71398941 140.71398941 140.71398941 140.71398941 140.71398941 140.71398941 140.71398941 140.71398941 140.71398941 140.71398941 140.71398941 140.73010748 140.73985487 140.74377580 140.74377580 140.73985487 140.73010748 140.71398941 140.71398941 140.71398941 140.71398941 140.71398941 140.71398941 140.71398941 140.71398941 140.71398941 140.71398941 140.71398941 140.71398941 140.71398941 140.71398941 140.71398941 140.71398941 140.71398941 140.71398941 140.71398941 140.71398941 140.71398941 140.71398941 140.71398941 140.71398941 140.71398941 140.71398941 140.71398941 140.71398941 140.71398941 140.73088230 140.74338261 140.74993484 140.75324242 140.75626448 140.76339611 140.77007854 140.77356866 140.77356866 140.77007854 140.76339611 140.75626448 140.75324242 140.74993484 140.74338261 140.73088230 140.71398941 140.71398941 140.71398941 140.71398941 140.71398941 140.71398941 140.71398941 140.71398941 140.71398941 140.71398941 140.71398941 140.71398941 140.71398941 140.71398941 140.71398941 140.71398941 140.71398941 140.71398941 140.71398941 140.71398941 140.71398941 140.71398941 140.73877802 140.75162231 140.76354190 140.77324980 140.77870294 140.78102839 140.78250399 140.78515235 140.78812135 140.78991290 140.78991290 140.78812135 140.78515235 140.78250399 140.78102839 140.77870294 140.77324980 140.76354190 140.75162231 140.73877802 140.71398941 140.71398941 140.71398941 140.71398941 140.71398941 140.71398941 140.71398941 140.71398941 140.71398941 140.71398941 140.71398941 140.71398941 140.71398941 140.71398941 140.71398941 140.71398941 140.71398941 140.71398941 140.73694443 140.75214248 140.76884002 140.77956581 140.78614004 140.78966811 140.79027882 140.78898316 140.78732400 140.78648783 140.78646516 140.78664660 140.78664660 140.78646516 140.78648783 140.78732400 140.78898316 140.79027882 140.78966811 140.78614004 140.77956581 140.76884002 140.75214248 140.73694443 140.71398941 140.71398941 140.71398941 140.71398941 140.71398941 140.71398941 140.71398941 140.71398941 140.71398941 140.71398941 140.71398941 140.71398941 140.71398941 140.71398941 140.71398941 140.74228375 140.76424141 140.77878674 140.78802188 140.79143504 140.79069494 140.78761051 140.78328928 140.77866994 140.77463551 140.77175696 140.77007487 140.76933098 140.76933098 140.77007487 140.77175696 140.77463551 140.77866994 140.78328928 140.78761051 140.79069494 140.79143504 140.78802188 140.77878674 140.76424141 140.74228375 140.71398941 140.71398941 140.71398941 140.71398941 140.71398941 140.71398941 140.71398941 140.71398941 140.71398941 140.71398941 140.71398941 140.71398941 140.72886967 140.74830941 140.77003625 140.78493983 140.79149522 140.79140795 140.78669110 140.77967687 140.77221549 140.76531672 140.75946103 140.75488537 140.75164984 140.74964497 140.74869727 140.74869727 140.74964497 140.75164984 140.75488537 140.75946103 140.76531672 140.77221549 140.77967687 140.78669110 140.79140795 140.79149522 140.78493983 140.77003625 140.74830941 140.72886967 140.71398941 140.71398941 140.71398941 140.71398941 140.71398941 140.71398941 140.71398941 140.71398941 140.71398941 140.71398941 140.74895911 140.77330024 140.78843274 140.79342359 140.79007034 140.78171049 140.77142105 140.76140539 140.75283522 140.74604036 140.74090968 140.73720224 140.73467483 140.73311623 140.73237420 140.73237420 140.73311623 140.73467483 140.73720224 140.74090968 140.74604036 140.75283522 140.76140539 140.77142105 140.78171049 140.79007034 140.79342359 140.78843274 140.77330024 140.74895911 140.71398941 140.71398941 140.71398941 140.71398941 140.71398941 140.71398941 140.71398941 140.71398941 140.71398941 140.74360301 140.77246135 140.79055437 140.79580667 140.79043645 140.77895320 140.76572376 140.75358355 140.74378159 140.73648345 140.73131302 140.72775301 140.72535296 140.72378607 140.72283933 140.72239168 140.72239168 140.72283933 140.72378607 140.72535296 140.72775301 140.73131302 140.73648345 140.74378159 140.75358355 140.76572376 140.77895320 140.79043645 140.79580667 140.79055437 140.77246135 140.74360301 140.71398941 140.71398941 140.71398941 140.71398941 140.71398941 140.71398941 140.71398941 140.73699841 140.76665320 140.78991926 140.79901901 140.79412683 140.78052921 140.76437711 140.74985199 140.73864967 140.73079865 140.72561527 140.72230355 140.72021388 140.71889861 140.71807960 140.71759801 140.71737315 140.71737315 140.71759801 140.71807960 140.71889861 140.72021388 140.72230355 140.72561527 140.73079865 140.73864967 140.74985199 140.76437711 140.78052921 140.79412683 140.79901901 140.78991926 140.76665320 140.73699841 140.71398941 140.71398941 140.71398941 140.71398941 140.71398941 140.71398941 140.74965996 140.78137460 140.79969146 140.80047332 140.78760139 140.76897083 140.75125839 140.73765641 140.72851464 140.72287270 140.71956062 140.71765723 140.71656134 140.71592047 140.71554182 140.71532619 140.71522712 140.71522712 140.71532619 140.71554182 140.71592047 140.71656134 140.71765723 140.71956062 140.72287270 140.72851464 140.73765641 140.75125839 140.76897083 140.78760139 140.80047332 140.79969146 140.78137460 140.74965996 140.71398941 140.71398941 140.71398941 140.71398941 140.71398941 140.71398941 140.75715548 140.78958891 140.80380011 140.79851524 140.78063041 140.75965317 140.74208046 140.73001065 140.72275294 140.71875753 140.71666763 140.71559319 140.71503379 140.71473267 140.71456512 140.71447316 140.71443167 140.71443167 140.71447316 140.71456512 140.71473267 140.71503379 140.71559319 140.71666763 140.71875753 140.72275294 140.73001065 140.74208046 140.75965317 140.78063041 140.79851524 140.80380011 140.78958891 140.75715548 140.71398941 140.71398941 140.71398941 140.71398941 140.71398941 140.72755231 140.76354821 140.79372511 140.80509848 140.79658592 140.77638303 140.75462509 140.73750848 140.72645976 140.72025303 140.71708855 140.71556856 140.71485463 140.71451440 140.71434491 140.71425591 140.71420875 140.71418783 140.71418783 140.71420875 140.71425591 140.71434491 140.71451440 140.71485463 140.71556856 140.71708855 140.72025303 140.72645976 140.73750848 140.75462509 140.77638303 140.79658592 140.80509848 140.79372511 140.76354821 140.72755231 140.71398941 140.71398941 140.71398941 140.71398941 140.72755231 140.76354821 140.79372511 140.80509848 140.79658592 140.77638303 140.75462509 140.73750848 140.72645976 140.72025303 140.71708855 140.71556856 140.71485463 140.71451440 140.71434491 140.71425591 140.71420875 140.71418783 140.71418783 140.71420875 140.71425591 140.71434491 140.71451440 140.71485463 140.71556856 140.71708855 140.72025303 140.72645976 140.73750848 140.75462509 140.77638303 140.79658592 140.80509848 140.79372511 140.76354821 140.72755231 140.71398941 140.71398941 140.71398941 140.71398941 140.71398941 140.75715548 140.78958891 140.80380011 140.79851524 140.78063041 140.75965317 140.74208046 140.73001065 140.72275294 140.71875753 140.71666763 140.71559319 140.71503379 140.71473267 140.71456512 140.71447316 140.71443167 140.71443167 140.71447316 140.71456512 140.71473267 140.71503379 140.71559319 140.71666763 140.71875753 140.72275294 140.73001065 140.74208046 140.75965317 140.78063041 140.79851524 140.80380011 140.78958891 140.75715548 140.71398941 140.71398941 140.71398941 140.71398941 140.71398941 140.71398941 140.74965996 140.78137460 140.79969146 140.80047332 140.78760139 140.76897083 140.75125839 140.73765641 140.72851464 140.72287270 140.71956062 140.71765723 140.71656134 140.71592047 140.71554182 140.71532619 140.71522712 140.71522712 140.71532619 140.71554182 140.71592047 140.71656134 140.71765723 140.71956062 140.72287270 140.72851464 140.73765641 140.75125839 140.76897083 140.78760139 140.80047332 140.79969146 140.78137460 140.74965996 140.71398941 140.71398941 140.71398941 140.71398941 140.71398941 140.71398941 140.73699841 140.76665320 140.78991926 140.79901901 140.79412683 140.78052921 140.76437711 140.74985199 140.73864967 140.73079865 140.72561527 140.72230355 140.72021388 140.71889861 140.71807960 140.71759801 140.71737315 140.71737315 140.71759801 140.71807960 140.71889861 140.72021388 140.72230355 140.72561527 140.73079865 140.73864967 140.74985199 140.76437711 140.78052921 140.79412683 140.79901901 140.78991926 140.76665320 140.73699841 140.71398941 140.71398941 140.71398941 140.71398941 140.71398941 140.71398941 140.71398941 140.74360301 140.77246135 140.79055437 140.79580667 140.79043645 140.77895320 140.76572376 140.75358355 140.74378159 140.73648345 140.73131302 140.72775301 140.72535296 140.72378607 140.72283933 140.72239168 140.72239168 140.72283933 140.72378607 140.72535296 140.72775301 140.73131302 140.73648345 140.74378159 140.75358355 140.76572376 140.77895320 140.79043645 140.79580667 140.79055437 140.77246135 140.74360301 140.71398941 140.71398941 140.71398941 140.71398941 140.71398941 140.71398941 140.71398941 140.71398941 140.71398941 140.74895911 140.77330024 140.78843274 140.79342359 140.79007034 140.78171049 140.77142105 140.76140539 140.75283522 140.74604036 140.74090968 140.73720224 140.73467483 140.73311623 140.73237420 140.73237420 140.73311623 140.73467483 140.73720224 140.74090968 140.74604036 140.75283522 140.76140539 140.77142105 140.78171049 140.79007034 140.79342359 140.78843274 140.77330024 140.74895911 140.71398941 140.71398941 140.71398941 140.71398941 140.71398941 140.71398941 140.71398941 140.71398941 140.71398941 140.71398941 140.72886967 140.74830941 140.77003625 140.78493983 140.79149522 140.79140795 140.78669110 140.77967687 140.77221549 140.76531672 140.75946103 140.75488537 140.75164984 140.74964497 140.74869727 140.74869727 140.74964497 140.75164984 140.75488537 140.75946103 140.76531672 140.77221549 140.77967687 140.78669110 140.79140795 140.79149522 140.78493983 140.77003625 140.74830941 140.72886967 140.71398941 140.71398941 140.71398941 140.71398941 140.71398941 140.71398941 140.71398941 140.71398941 140.71398941 140.71398941 140.71398941 140.71398941 140.74228375 140.76424141 140.77878674 140.78802188 140.79143504 140.79069494 140.78761051 140.78328928 140.77866994 140.77463551 140.77175696 140.77007487 140.76933098 140.76933098 140.77007487 140.77175696 140.77463551 140.77866994 140.78328928 140.78761051 140.79069494 140.79143504 140.78802188 140.77878674 140.76424141 140.74228375 140.71398941 140.71398941 140.71398941 140.71398941 140.71398941 140.71398941 140.71398941 140.71398941 140.71398941 140.71398941 140.71398941 140.71398941 140.71398941 140.71398941 140.71398941 140.73694443 140.75214248 140.76884002 140.77956581 140.78614004 140.78966811 140.79027882 140.78898316 140.78732400 140.78648783 140.78646516 140.78664660 140.78664660 140.78646516 140.78648783 140.78732400 140.78898316 140.79027882 140.78966811 140.78614004 140.77956581 140.76884002 140.75214248 140.73694443 140.71398941 140.71398941 140.71398941 140.71398941 140.71398941 140.71398941 140.71398941 140.71398941 140.71398941 140.71398941 140.71398941 140.71398941 140.71398941 140.71398941 140.71398941 140.71398941 140.71398941 140.71398941 140.73877802 140.75162231 140.76354190 140.77324980 140.77870294 140.78102839 140.78250399 140.78515235 140.78812135 140.78991290 140.78991290 140.78812135 140.78515235 140.78250399 140.78102839 140.77870294 140.77324980 140.76354190 140.75162231 140.73877802 140.71398941 140.71398941 140.71398941 140.71398941 140.71398941 140.71398941 140.71398941 140.71398941 140.71398941 140.71398941 140.71398941 140.71398941 140.71398941 140.71398941 140.71398941 140.71398941 140.71398941 140.71398941 140.71398941 140.71398941 140.71398941 140.71398941 140.73088230 140.74338261 140.74993484 140.75324242 140.75626448 140.76339611 140.77007854 140.77356866 140.77356866 140.77007854 140.76339611 140.75626448 140.75324242 140.74993484 140.74338261 140.73088230 140.71398941 140.71398941 140.71398941 140.71398941 140.71398941 140.71398941 140.71398941 140.71398941 140.71398941 140.71398941 140.71398941 140.71398941 140.71398941 140.71398941 140.71398941 140.71398941 140.71398941 140.71398941 140.71398941 140.71398941 140.71398941 140.71398941 140.71398941 140.71398941 140.71398941 140.71398941 140.71398941 140.71398941 140.71398941 140.73010748 140.73985487 140.74377580 140.74377580 140.73985487 140.73010748 140.71398941 140.71398941 140.71398941 140.71398941 140.71398941 140.71398941 140.71398941 140.71398941 140.71398941 140.71398941 140.71398941 140.71398941 140.71398941 140.71398941 140.71398941 140.71398941 140.71398941 140.71398941 140.71398941 140.71398941 140.71398941 140.71398941 140.71398941 140.71398941 140.71398941 140.71398941 140.71398941 140.71398941 140.71398941 140.71398941 140.71398941 140.71398941 140.71398941 140.71398941 140.71398941 140.71398941 140.71398941 140.71398941 140.71398941 140.71398941 140.71398941 140.71398941 140.71398941 140.71398941 140.71398941 140.71398941 140.71398941 140.71398941 140.71398941 140.71398941 140.71398941 140.71398941 140.71398941 140.71398941 140.71398941 140.71398941 140.71398941 140.71398941 140.71398941 140.71398941 140.71398941 140.71398941 140.71398941 140.71398941 140.71398941 140.71398941 140.71398941 140.71398941 140.71398941 140.71398941 140.71398941 140.71398941 140.71398941 140.71398941 140.71398941 140.71398941 140.71398941 140.71398941 140.71398941 140.71398941 140.71398941 140.71398941 140.71398941 140.71398941 140.71398941 140.71398941 140.71398941 140.71398941 140.71398941 140.71398941 140.71398941 140.71398941 140.71398941 140.71398941 140.71398941 140.71398941 140.71398941 140.71398941 140.71398941 140.71398941 140.71398941 140.71398941 140.71398941 140.71398941 140.71398941 140.71398941 140.71398941 140.71398941 140.71398941 140.71398941 140.71398941 140.71398941 140.71398941 140.71398941 140.71398941 140.71398941 140.71398941 140.71398941 140.71398941 140.71398941 140.71398941 140.71398941 140.71398941 140.71398941 140.71398941 140.71398941 140.71398941 140.71398941 140.71398941 140.71398941 140.71398941 140.71398941 140.71398941 140.71398941 140.71398941 140.71398941 140.71398941 140.71398941 140.71398941 140.71398941 140.71398941 140.71398941 140.71398941 140.71398941 140.71398941 140.71398941 140.71398941 140.71398941 140.71398941 140.71398941 140.71398941 140.71398941 140.71398941 140.71398941 140.71398941 140.71398941 140.71398941 140.71398941 140.71398941 140.71398941 140.71398941 140.71398941 140.71398941 140.71398941 140.71398941 140.71398941 140.71398941 140.71398941 140.71398941 140.71398941 140.71398941 140.71398941 140.71398941 140.71398941 140.71398941 140.71398941 140.71398941 140.71398941 140.71398941 140.71398941 140.71398941 140.71398941 140.71398941 140.71398941 140.71398941 140.71398941 140.71398941 140.71398941 140.71398941 140.71398941 140.71398941 140.71398941 140.71398941 140.71398941 140.71398941 140.71398941 140.71398941 140.71398941 140.71398941 140.71398941 140.71398941 140.71398941 140.71398941 140.71398941 140.71398941 140.71398941 140.71398941 140.71398941 140.71398941 140.71398941 140.71398941 140.71398941 140.71398941 140.71398941 140.71398941 140.71398941 140.71398941 140.71398941 140.71398941 140.71398941 140.71398941 140.71398941 140.71398941 140.71398941 140.71398941 140.71398941 140.71398941 140.71398941 140.71398941 140.71398941 140.71398941 140.71398941 140.71398941 140.71398941 140.71398941 140.71398941 140.71398941 140.71398941 140.71398941 140.71398941 140.71398941 140.71398941 140.71398941 140.71398941 140.71398941 140.71398941 140.71398941 140.71398941 140.71398941 140.71398941 140.71398941 140.71398941 140.71398941 140.71398941 140.71398941 140.71398941 140.71398941 140.71398941 140.71398941 140.71398941 140.71398941 140.71398941 140.71398941 140.71398941 140.71398941 140.71398941 140.71398941 140.71398941 140.71398941 140.71398941 140.71398941 140.71398941 140.71398941 140.71398941 140.71398941 140.71398941 140.71398941 140.71398941 140.71398941 140.71398941 140.71398941 140.71398941 140.71398941 140.71398941 140.71398941 140.71398941 140.71398941 140.71398941 140.71398941 140.71398941 140.71398941 140.71398941 140.71398941 140.71398941 140.71398941 140.71398941 140.71398941 140.71398941 140.71398941 140.71398941 140.71398941 140.71398941 140.71398941 140.71398941 140.71398941 140.71398941 140.71398941 140.71398941 140.71398941 140.71398941 140.71398941 140.71398941 140.71398941 140.71398941 140.71398941 140.71398941 140.71398941 140.71398941 140.71398941 140.71398941 140.71398941 140.71398941 140.71398941 140.71398941 140.71398941 140.71398941 140.71398941 140.71398941 140.71398941 140.71398941 140.71398941 140.71398941 140.71398941 140.71398941 140.71398941 140.71398941 140.71398941 