# vtk DataFile Version 3.0
VTK - Matlab export
ASCII
DATASET STRUCTURED_POINTS
DIMENSIONS 40 40 1
SPACING 1 1 1
ORIGIN 0 0 0
POINT_DATA 1600
SCALARS Proofstrength float 1
LOOKUP_TABLE default
140.71398941 140.71398941 140.71398941 140.71398941 140.71398941 140.71398941 140.71398941 140.71398941 140.71398941 140.71398941 140.71398941 140.71398941 140.71398941 140.71398941 140.71398941 140.71398941 140.71398941 140.71398941 140.71398941 140.71398941 140.71398941 140.71398941 140.71398941 140.71398941 140.71398941 140.71398941 140.71398941 140.71398941 140.71398941 140.71398941 140.71398941 140.71398941 140.71398941 140.71398941 140.71398941 140.71398941 140.71398941 140.71398941 140.71398941 140.71398941 140.71398941 140.71398941 140.71398941 140.71398941 140.71398941 140.71398941 140.71398941 140.71398941 140.71398941 140.71398941 140.71398941 140.71398941 140.71398941 140.71398941 140.71398941 140.71398941 140.71398941 140.71398941 140.71398941 140.71398941 140.71398941 140.71398941 140.71398941 140.71398941 140.71398941 140.71398941 140.71398941 140.71398941 140.71398941 140.71398941 140.71398941 140.71398941 140.71398941 140.71398941 140.71398941 140.71398941 140.71398941 140.71398941 140.71398941 140.71398941 140.71398941 140.71398941 140.71398941 140.71398941 140.71398941 140.71398941 140.71398941 140.71398941 140.71398941 140.71398941 140.71398941 140.71398941 140.71398941 140.71398941 140.71398941 140.71398941 140.71398941 140.71398941 140.71398941 140.71398941 140.71398941 140.71398941 140.71398941 140.71398941 140.71398941 140.71398941 140.71398941 140.71398941 140.71398941 140.71398941 140.71398941 140.71398941 140.71398941 140.71398941 140.71398941 140.71398941 140.71398941 140.71398941 140.71398941 140.71398941 140.71398941 140.71398941 140.71398941 140.71398941 140.71398941 140.71398941 140.71398941 140.71398941 140.71398941 140.71398941 140.71398941 140.71398941 140.71398941 140.71398941 140.71398941 140.71398941 140.71398941 140.71398941 140.71398941 140.71398941 140.71398941 140.71398941 140.71398941 140.71398941 140.71398941 140.71398941 140.71398941 140.71398941 140.71398941 140.71398941 140.71398941 140.71398941 140.71398941 140.71398941 140.71398941 140.71398941 140.71398941 140.71398941 140.71398941 140.71398941 140.71398941 140.71398941 140.71398941 140.71398941 140.71398941 140.71398941 140.71398941 140.71398941 140.71398941 140.71398941 140.71398941 140.71398941 140.71398941 140.71398941 140.71398941 140.71398941 140.71398941 140.71398941 140.71398941 140.71398941 140.71398941 140.71398941 140.71398941 140.71398941 140.71398941 140.71398941 140.71398941 140.71398941 140.71398941 140.71398941 140.71398941 140.71398941 140.71398941 140.71398941 140.71398941 140.71398941 140.71398941 140.71398941 140.71398941 140.71398941 140.71398941 140.71398941 140.71398941 140.71398941 140.71398941 140.71398941 140.71398941 140.71398941 140.71398941 140.71398941 140.71398941 140.71398941 140.71398941 140.71398941 140.71398941 140.71398941 140.71398941 140.71398941 140.71398941 140.71398941 140.71398941 140.71398941 140.71398941 140.71398941 140.71398941 140.71398941 140.71398941 140.71398941 140.71398941 140.71398941 140.71398941 140.71398941 140.71398941 140.71398941 140.71398941 140.71398941 140.71398941 140.71398941 140.71398941 140.71398941 140.71398941 140.71398941 140.71398941 140.71398941 140.71398941 140.71398941 140.71398941 140.71398941 140.71398941 140.71398941 140.71398941 140.71398941 140.71398941 140.71398941 140.71398941 140.71398941 140.71398941 140.71398941 140.71398941 140.71398941 140.71398941 140.71398941 140.71398941 140.71398941 140.71398941 140.71398941 140.71398941 140.71398941 140.71398941 140.71398941 140.71398941 140.71398941 140.71398941 140.71398941 140.71398941 140.71398941 140.71398941 140.71398941 140.71398941 140.71398941 140.71398941 140.71398941 140.71398941 140.71398941 140.71398941 140.71398941 140.71398941 140.71398941 140.71398941 140.71398941 140.71398941 140.71398941 140.71398941 140.71398941 140.71398941 140.71398941 140.71398941 140.71398941 140.71398941 140.71398941 140.71398941 140.71398941 140.71398941 140.71398941 140.71398941 140.71398941 140.71398941 140.71398941 140.71398941 140.71398941 140.71398941 140.71398941 140.71398941 140.71398941 140.71398941 140.71398941 140.71398941 140.71398941 140.71398941 140.71398941 140.71398941 140.71398941 140.71398941 140.71398941 140.71398941 140.71398941 140.71398941 140.71398941 140.71398941 140.71398941 140.71398941 140.71398941 140.71398941 140.71398941 140.71398941 140.71398941 140.71398941 140.71732408 140.71913955 140.71980833 140.71980833 140.71913955 140.71732408 140.71398941 140.71398941 140.71398941 140.71398941 140.71398941 140.71398941 140.71398941 140.71398941 140.71398941 140.71398941 140.71398941 140.71398941 140.71398941 140.71398941 140.71398941 140.71398941 140.71398941 140.71398941 140.71398941 140.71398941 140.71398941 140.71398941 140.71398941 140.71398941 140.71398941 140.71398941 140.71398941 140.71398941 140.71398941 140.71751209 140.72014099 140.72170787 140.72272629 140.72364543 140.72519990 140.72647363 140.72708952 140.72708952 140.72647363 140.72519990 140.72364543 140.72272629 140.72170787 140.72014099 140.71751209 140.71398941 140.71398941 140.71398941 140.71398941 140.71398941 140.71398941 140.71398941 140.71398941 140.71398941 140.71398941 140.71398941 140.71398941 140.71398941 140.71398941 140.71398941 140.71398941 140.71398941 140.71398941 140.71398941 140.71398941 140.71398941 140.71398941 140.71923605 140.72217419 140.72510881 140.72774610 140.72969709 140.73109340 140.73220256 140.73326956 140.73411995 140.73456596 140.73456596 140.73411995 140.73326956 140.73220256 140.73109340 140.72969709 140.72774610 140.72510881 140.72217419 140.71923605 140.71398941 140.71398941 140.71398941 140.71398941 140.71398941 140.71398941 140.71398941 140.71398941 140.71398941 140.71398941 140.71398941 140.71398941 140.71398941 140.71398941 140.71398941 140.71398941 140.71398941 140.71398941 140.71890782 140.72247101 140.72667001 140.73007760 140.73294263 140.73531274 140.73710113 140.73838561 140.73932995 140.74007103 140.74060829 140.74088874 140.74088874 140.74060829 140.74007103 140.73932995 140.73838561 140.73710113 140.73531274 140.73294263 140.73007760 140.72667001 140.72247101 140.71890782 140.71398941 140.71398941 140.71398941 140.71398941 140.71398941 140.71398941 140.71398941 140.71398941 140.71398941 140.71398941 140.71398941 140.71398941 140.71398941 140.71398941 140.71398941 140.72024760 140.72560142 140.73011877 140.73414433 140.73738804 140.73988956 140.74174519 140.74303085 140.74386850 140.74440559 140.74476244 140.74499366 140.74510919 140.74510919 140.74499366 140.74476244 140.74440559 140.74386850 140.74303085 140.74174519 140.73988956 140.73738804 140.73414433 140.73011877 140.72560142 140.72024760 140.71398941 140.71398941 140.71398941 140.71398941 140.71398941 140.71398941 140.71398941 140.71398941 140.71398941 140.71398941 140.71398941 140.71398941 140.71707071 140.72153691 140.72730005 140.73267288 140.73721257 140.74084346 140.74350817 140.74529572 140.74636934 140.74690441 140.74707887 140.74705606 140.74696146 140.74687050 140.74681849 140.74681849 140.74687050 140.74696146 140.74705606 140.74707887 140.74690441 140.74636934 140.74529572 140.74350817 140.74084346 140.73721257 140.73267288 140.72730005 140.72153691 140.71707071 140.71398941 140.71398941 140.71398941 140.71398941 140.71398941 140.71398941 140.71398941 140.71398941 140.71398941 140.71398941 140.72147303 140.72791961 140.73398539 140.73922942 140.74334988 140.74626212 140.74802810 140.74883532 140.74893383 140.74857665 140.74798855 140.74734963 140.74678783 140.74638125 140.74617000 140.74617000 140.74638125 140.74678783 140.74734963 140.74798855 140.74857665 140.74893383 140.74883532 140.74802810 140.74626212 140.74334988 140.73922942 140.73398539 140.72791961 140.72147303 140.71398941 140.71398941 140.71398941 140.71398941 140.71398941 140.71398941 140.71398941 140.71398941 140.71398941 140.71997499 140.72702386 140.73385241 140.73992590 140.74479454 140.74821375 140.75017370 140.75085314 140.75055152 140.74960911 140.74834178 140.74700545 140.74578527 140.74480060 140.74411871 140.74377180 140.74377180 140.74411871 140.74480060 140.74578527 140.74700545 140.74834178 140.74960911 140.75055152 140.75085314 140.75017370 140.74821375 140.74479454 140.73992590 140.73385241 140.72702386 140.71997499 140.71398941 140.71398941 140.71398941 140.71398941 140.71398941 140.71398941 140.71398941 140.71828005 140.72473362 140.73198849 140.73893242 140.74480959 140.74913520 140.75171657 140.75264082 140.75220572 140.75082003 140.74890473 140.74682190 140.74484176 140.74314118 140.74182046 140.74092707 140.74047828 140.74047828 140.74092707 140.74182046 140.74314118 140.74484176 140.74682190 140.74890473 140.75082003 140.75220572 140.75264082 140.75171657 140.74913520 140.74480959 140.73893242 140.73198849 140.72473362 140.71828005 140.71398941 140.71398941 140.71398941 140.71398941 140.71398941 140.71398941 140.72071806 140.72819545 140.73585976 140.74286100 140.74846693 140.75221692 140.75398417 140.75395436 140.75253387 140.75022505 140.74751191 140.74478576 140.74231787 140.74026826 140.73871331 140.73767778 140.73716227 140.73716227 140.73767778 140.73871331 140.74026826 140.74231787 140.74478576 140.74751191 140.75022505 140.75253387 140.75395436 140.75398417 140.75221692 140.74846693 140.74286100 140.73585976 140.72819545 140.72071806 140.71398941 140.71398941 140.71398941 140.71398941 140.71398941 140.71398941 140.72228395 140.73051031 140.73849178 140.74550756 140.75086538 140.75414116 140.75526847 140.75451321 140.75236462 140.74939271 140.74612345 140.74296343 140.74017842 140.73791084 140.73621567 140.73509834 140.73454550 140.73454550 140.73509834 140.73621567 140.73791084 140.74017842 140.74296343 140.74612345 140.74939271 140.75236462 140.75451321 140.75526847 140.75414116 140.75086538 140.74550756 140.73849178 140.73051031 140.72228395 140.71398941 140.71398941 140.71398941 140.71398941 140.71398941 140.71646435 140.72355819 140.73177327 140.73983920 140.74683646 140.75204473 140.75505346 140.75582985 140.75468429 140.75215076 140.74883451 140.74528214 140.74190623 140.73896756 140.73659761 140.73483882 140.73368563 140.73311686 140.73311686 140.73368563 140.73483882 140.73659761 140.73896756 140.74190623 140.74528214 140.74883451 140.75215076 140.75468429 140.75582985 140.75505346 140.75204473 140.74683646 140.73983920 140.73177327 140.72355819 140.71646435 140.71398941 140.71398941 140.71398941 140.71398941 140.71646435 140.72355819 140.73177327 140.73983920 140.74683646 140.75204473 140.75505346 140.75582985 140.75468429 140.75215076 140.74883451 140.74528214 140.74190623 140.73896756 140.73659761 140.73483882 140.73368563 140.73311686 140.73311686 140.73368563 140.73483882 140.73659761 140.73896756 140.74190623 140.74528214 140.74883451 140.75215076 140.75468429 140.75582985 140.75505346 140.75204473 140.74683646 140.73983920 140.73177327 140.72355819 140.71646435 140.71398941 140.71398941 140.71398941 140.71398941 140.71398941 140.72228395 140.73051031 140.73849178 140.74550756 140.75086538 140.75414116 140.75526847 140.75451321 140.75236462 140.74939271 140.74612345 140.74296343 140.74017842 140.73791084 140.73621567 140.73509834 140.73454550 140.73454550 140.73509834 140.73621567 140.73791084 140.74017842 140.74296343 140.74612345 140.74939271 140.75236462 140.75451321 140.75526847 140.75414116 140.75086538 140.74550756 140.73849178 140.73051031 140.72228395 140.71398941 140.71398941 140.71398941 140.71398941 140.71398941 140.71398941 140.72071806 140.72819545 140.73585976 140.74286100 140.74846693 140.75221692 140.75398417 140.75395436 140.75253387 140.75022505 140.74751191 140.74478576 140.74231787 140.74026826 140.73871331 140.73767778 140.73716227 140.73716227 140.73767778 140.73871331 140.74026826 140.74231787 140.74478576 140.74751191 140.75022505 140.75253387 140.75395436 140.75398417 140.75221692 140.74846693 140.74286100 140.73585976 140.72819545 140.72071806 140.71398941 140.71398941 140.71398941 140.71398941 140.71398941 140.71398941 140.71828005 140.72473362 140.73198849 140.73893242 140.74480959 140.74913520 140.75171657 140.75264082 140.75220572 140.75082003 140.74890473 140.74682190 140.74484176 140.74314118 140.74182046 140.74092707 140.74047828 140.74047828 140.74092707 140.74182046 140.74314118 140.74484176 140.74682190 140.74890473 140.75082003 140.75220572 140.75264082 140.75171657 140.74913520 140.74480959 140.73893242 140.73198849 140.72473362 140.71828005 140.71398941 140.71398941 140.71398941 140.71398941 140.71398941 140.71398941 140.71398941 140.71997499 140.72702386 140.73385241 140.73992590 140.74479454 140.74821375 140.75017370 140.75085314 140.75055152 140.74960911 140.74834178 140.74700545 140.74578527 140.74480060 140.74411871 140.74377180 140.74377180 140.74411871 140.74480060 140.74578527 140.74700545 140.74834178 140.74960911 140.75055152 140.75085314 140.75017370 140.74821375 140.74479454 140.73992590 140.73385241 140.72702386 140.71997499 140.71398941 140.71398941 140.71398941 140.71398941 140.71398941 140.71398941 140.71398941 140.71398941 140.71398941 140.72147303 140.72791961 140.73398539 140.73922942 140.74334988 140.74626212 140.74802810 140.74883532 140.74893383 140.74857665 140.74798855 140.74734963 140.74678783 140.74638125 140.74617000 140.74617000 140.74638125 140.74678783 140.74734963 140.74798855 140.74857665 140.74893383 140.74883532 140.74802810 140.74626212 140.74334988 140.73922942 140.73398539 140.72791961 140.72147303 140.71398941 140.71398941 140.71398941 140.71398941 140.71398941 140.71398941 140.71398941 140.71398941 140.71398941 140.71398941 140.71707071 140.72153691 140.72730005 140.73267288 140.73721257 140.74084346 140.74350817 140.74529572 140.74636934 140.74690441 140.74707887 140.74705606 140.74696146 140.74687050 140.74681849 140.74681849 140.74687050 140.74696146 140.74705606 140.74707887 140.74690441 140.74636934 140.74529572 140.74350817 140.74084346 140.73721257 140.73267288 140.72730005 140.72153691 140.71707071 140.71398941 140.71398941 140.71398941 140.71398941 140.71398941 140.71398941 140.71398941 140.71398941 140.71398941 140.71398941 140.71398941 140.71398941 140.72024760 140.72560142 140.73011877 140.73414433 140.73738804 140.73988956 140.74174519 140.74303085 140.74386850 140.74440559 140.74476244 140.74499366 140.74510919 140.74510919 140.74499366 140.74476244 140.74440559 140.74386850 140.74303085 140.74174519 140.73988956 140.73738804 140.73414433 140.73011877 140.72560142 140.72024760 140.71398941 140.71398941 140.71398941 140.71398941 140.71398941 140.71398941 140.71398941 140.71398941 140.71398941 140.71398941 140.71398941 140.71398941 140.71398941 140.71398941 140.71398941 140.71890782 140.72247101 140.72667001 140.73007760 140.73294263 140.73531274 140.73710113 140.73838561 140.73932995 140.74007103 140.74060829 140.74088874 140.74088874 140.74060829 140.74007103 140.73932995 140.73838561 140.73710113 140.73531274 140.73294263 140.73007760 140.72667001 140.72247101 140.71890782 140.71398941 140.71398941 140.71398941 140.71398941 140.71398941 140.71398941 140.71398941 140.71398941 140.71398941 140.71398941 140.71398941 140.71398941 140.71398941 140.71398941 140.71398941 140.71398941 140.71398941 140.71398941 140.71923605 140.72217419 140.72510881 140.72774610 140.72969709 140.73109340 140.73220256 140.73326956 140.73411995 140.73456596 140.73456596 140.73411995 140.73326956 140.73220256 140.73109340 140.72969709 140.72774610 140.72510881 140.72217419 140.71923605 140.71398941 140.71398941 140.71398941 140.71398941 140.71398941 140.71398941 140.71398941 140.71398941 140.71398941 140.71398941 140.71398941 140.71398941 140.71398941 140.71398941 140.71398941 140.71398941 140.71398941 140.71398941 140.71398941 140.71398941 140.71398941 140.71398941 140.71751209 140.72014099 140.72170787 140.72272629 140.72364543 140.72519990 140.72647363 140.72708952 140.72708952 140.72647363 140.72519990 140.72364543 140.72272629 140.72170787 140.72014099 140.71751209 140.71398941 140.71398941 140.71398941 140.71398941 140.71398941 140.71398941 140.71398941 140.71398941 140.71398941 140.71398941 140.71398941 140.71398941 140.71398941 140.71398941 140.71398941 140.71398941 140.71398941 140.71398941 140.71398941 140.71398941 140.71398941 140.71398941 140.71398941 140.71398941 140.71398941 140.71398941 140.71398941 140.71398941 140.71398941 140.71732408 140.71913955 140.71980833 140.71980833 140.71913955 140.71732408 140.71398941 140.71398941 140.71398941 140.71398941 140.71398941 140.71398941 140.71398941 140.71398941 140.71398941 140.71398941 140.71398941 140.71398941 140.71398941 140.71398941 140.71398941 140.71398941 140.71398941 140.71398941 140.71398941 140.71398941 140.71398941 140.71398941 140.71398941 140.71398941 140.71398941 140.71398941 140.71398941 140.71398941 140.71398941 140.71398941 140.71398941 140.71398941 140.71398941 140.71398941 140.71398941 140.71398941 140.71398941 140.71398941 140.71398941 140.71398941 140.71398941 140.71398941 140.71398941 140.71398941 140.71398941 140.71398941 140.71398941 140.71398941 140.71398941 140.71398941 140.71398941 140.71398941 140.71398941 140.71398941 140.71398941 140.71398941 140.71398941 140.71398941 140.71398941 140.71398941 140.71398941 140.71398941 140.71398941 140.71398941 140.71398941 140.71398941 140.71398941 140.71398941 140.71398941 140.71398941 140.71398941 140.71398941 140.71398941 140.71398941 140.71398941 140.71398941 140.71398941 140.71398941 140.71398941 140.71398941 140.71398941 140.71398941 140.71398941 140.71398941 140.71398941 140.71398941 140.71398941 140.71398941 140.71398941 140.71398941 140.71398941 140.71398941 140.71398941 140.71398941 140.71398941 140.71398941 140.71398941 140.71398941 140.71398941 140.71398941 140.71398941 140.71398941 140.71398941 140.71398941 140.71398941 140.71398941 140.71398941 140.71398941 140.71398941 140.71398941 140.71398941 140.71398941 140.71398941 140.71398941 140.71398941 140.71398941 140.71398941 140.71398941 140.71398941 140.71398941 140.71398941 140.71398941 140.71398941 140.71398941 140.71398941 140.71398941 140.71398941 140.71398941 140.71398941 140.71398941 140.71398941 140.71398941 140.71398941 140.71398941 140.71398941 140.71398941 140.71398941 140.71398941 140.71398941 140.71398941 140.71398941 140.71398941 140.71398941 140.71398941 140.71398941 140.71398941 140.71398941 140.71398941 140.71398941 140.71398941 140.71398941 140.71398941 140.71398941 140.71398941 140.71398941 140.71398941 140.71398941 140.71398941 140.71398941 140.71398941 140.71398941 140.71398941 140.71398941 140.71398941 140.71398941 140.71398941 140.71398941 140.71398941 140.71398941 140.71398941 140.71398941 140.71398941 140.71398941 140.71398941 140.71398941 140.71398941 140.71398941 140.71398941 140.71398941 140.71398941 140.71398941 140.71398941 140.71398941 140.71398941 140.71398941 140.71398941 140.71398941 140.71398941 140.71398941 140.71398941 140.71398941 140.71398941 140.71398941 140.71398941 140.71398941 140.71398941 140.71398941 140.71398941 140.71398941 140.71398941 140.71398941 140.71398941 140.71398941 140.71398941 140.71398941 140.71398941 140.71398941 140.71398941 140.71398941 140.71398941 140.71398941 140.71398941 140.71398941 140.71398941 140.71398941 140.71398941 140.71398941 140.71398941 140.71398941 140.71398941 140.71398941 140.71398941 140.71398941 140.71398941 140.71398941 140.71398941 140.71398941 140.71398941 140.71398941 140.71398941 140.71398941 140.71398941 140.71398941 140.71398941 140.71398941 140.71398941 140.71398941 140.71398941 140.71398941 140.71398941 140.71398941 140.71398941 140.71398941 140.71398941 140.71398941 140.71398941 140.71398941 140.71398941 140.71398941 140.71398941 140.71398941 140.71398941 140.71398941 140.71398941 140.71398941 140.71398941 140.71398941 140.71398941 140.71398941 140.71398941 140.71398941 140.71398941 140.71398941 140.71398941 140.71398941 140.71398941 140.71398941 140.71398941 140.71398941 140.71398941 140.71398941 140.71398941 140.71398941 140.71398941 140.71398941 140.71398941 140.71398941 140.71398941 140.71398941 140.71398941 140.71398941 140.71398941 140.71398941 140.71398941 140.71398941 140.71398941 140.71398941 140.71398941 140.71398941 140.71398941 140.71398941 140.71398941 140.71398941 140.71398941 140.71398941 140.71398941 140.71398941 140.71398941 140.71398941 140.71398941 140.71398941 140.71398941 140.71398941 140.71398941 140.71398941 140.71398941 140.71398941 140.71398941 140.71398941 140.71398941 140.71398941 140.71398941 140.71398941 140.71398941 140.71398941 140.71398941 140.71398941 140.71398941 140.71398941 140.71398941 140.71398941 140.71398941 140.71398941 140.71398941 140.71398941 140.71398941 140.71398941 140.71398941 140.71398941 140.71398941 140.71398941 140.71398941 140.71398941 140.71398941 140.71398941 140.71398941 140.71398941 