# vtk DataFile Version 3.0
VTK - Matlab export
ASCII
DATASET STRUCTURED_POINTS
DIMENSIONS 40 40 1
SPACING 1 1 1
ORIGIN 0 0 0
POINT_DATA 1600
SCALARS lambda-2 float 1
LOOKUP_TABLE default
8.35311101 8.35311101 8.35311101 8.35311101 8.35311101 8.35311101 8.35311101 8.35311101 8.35311101 8.35311101 8.35311101 8.35311101 8.35311101 8.35311101 8.35311101 8.35311101 8.35311101 8.35311101 8.35311101 8.35311101 8.35311101 8.35311101 8.35311101 8.35311101 8.35311101 8.35311101 8.35311101 8.35311101 8.35311101 8.35311101 8.35311101 8.35311101 8.35311101 8.35311101 8.35311101 8.35311101 8.35311101 8.35311101 8.35311101 8.35311101 8.35311101 8.35311101 8.35311101 8.35311101 8.35311101 8.35311101 8.35311101 8.35311101 8.35311101 8.35311101 8.35311101 8.35311101 8.35311101 8.35311101 8.35311101 8.35311101 8.35311101 8.35311101 8.35311101 8.35311101 8.35311101 8.35311101 8.35311101 8.35311101 8.35311101 8.35311101 8.35311101 8.35311101 8.35311101 8.35311101 8.35311101 8.35311101 8.35311101 8.35311101 8.35311101 8.35311101 8.35311101 8.35311101 8.35311101 8.35311101 8.35311101 8.35311101 8.35311101 8.35311101 8.35311101 8.35311101 8.35311101 8.35311101 8.35311101 8.35311101 8.35311101 8.35311101 8.35311101 8.35311101 8.35311101 8.35311101 8.35311101 8.35311101 8.35311101 8.35311101 8.35311101 8.35311101 8.35311101 8.35311101 8.35311101 8.35311101 8.35311101 8.35311101 8.35311101 8.35311101 8.35311101 8.35311101 8.35311101 8.35311101 8.35311101 8.35311101 8.35311101 8.35311101 8.35311101 8.35311101 8.35311101 8.35311101 8.35311101 8.35311101 8.35311101 8.35311101 8.35311101 8.35311101 8.35311101 8.35311101 8.35311101 8.35311101 8.35311101 8.35311101 8.35311101 8.35311101 8.35311101 8.35311101 8.35311101 8.35311101 8.35311101 8.35311101 8.35311101 8.35311101 8.35311101 8.35311101 8.35311101 8.35311101 8.35311101 8.35311101 8.35311101 8.35311101 8.35311101 8.35311101 8.35311101 8.35311101 8.35311101 8.35311101 8.35311101 8.35311101 8.35311101 8.35311101 8.35311101 8.35311101 8.35311101 8.35311101 8.35311101 8.35311101 8.35311101 8.35311101 8.35311101 8.35311101 8.35311101 8.35311101 8.35311101 8.35311101 8.35311101 8.35311101 8.35311101 8.35311101 8.35311101 8.35311101 8.35311101 8.35311101 8.35311101 8.35311101 8.35311101 8.35311101 8.35311101 8.35311101 8.35311101 8.35311101 8.35311101 8.35311101 8.35311101 8.35311101 8.35311101 8.35311101 8.35311101 8.35311101 8.35311101 8.35311101 8.35311101 8.35311101 8.35311101 8.35311101 8.35311101 8.35311101 8.35311101 8.35311101 8.35311101 8.35311101 8.35311101 8.35311101 8.35311101 8.35311101 8.35311101 8.35311101 8.35311101 8.35311101 8.35311101 8.35311101 8.35311101 8.35311101 8.35311101 8.35311101 8.35311101 8.35311101 8.35311101 8.35311101 8.35311101 8.35311101 8.35311101 8.35311101 8.35311101 8.35311101 8.35311101 8.35311101 8.35311101 8.35311101 8.35311101 8.35311101 8.35311101 8.35311101 8.35311101 8.35311101 8.35311101 8.35311101 8.35311101 8.35311101 8.35311101 8.35311101 8.35311101 8.35311101 8.35311101 8.35311101 8.35311101 8.35311101 8.35311101 8.35311101 8.35311101 8.35311101 8.35311101 8.35311101 8.35311101 8.35311101 8.35311101 8.35311101 8.35311101 8.35311101 8.35311101 8.35311101 8.35311101 8.35311101 8.35311101 8.35311101 8.35311101 8.35311101 8.35311101 8.35311101 8.35311101 8.35311101 8.35311101 8.35311101 8.35311101 8.35311101 8.35311101 8.35311101 8.35311101 8.35311101 8.35311101 8.35311101 8.35311101 8.35311101 8.35311101 8.35311101 8.35311101 8.35311101 8.35311101 8.35311101 8.35311101 8.35311101 8.35311101 8.35311101 8.35311101 8.35311101 8.35311101 8.35311101 8.35311101 8.35311101 8.35311101 8.35311101 8.35311101 8.35311101 8.35311101 8.35311101 8.35311101 8.35311101 8.35311101 8.35311101 8.35311101 8.35311101 8.35311101 8.35311101 8.35311101 8.35311101 8.35311101 8.35311101 8.35311101 8.35311101 8.35311101 8.35311101 8.35311101 8.35311101 8.35311101 8.35311101 8.35311101 8.34977289 8.34794397 8.34726704 8.34726704 8.34794397 8.34977289 8.35311101 8.35311101 8.35311101 8.35311101 8.35311101 8.35311101 8.35311101 8.35311101 8.35311101 8.35311101 8.35311101 8.35311101 8.35311101 8.35311101 8.35311101 8.35311101 8.35311101 8.35311101 8.35311101 8.35311101 8.35311101 8.35311101 8.35311101 8.35311101 8.35311101 8.35311101 8.35311101 8.35311101 8.35311101 8.34958575 8.34695757 8.34540497 8.34441009 8.34351284 8.34196686 8.34069085 8.34007183 8.34007183 8.34069085 8.34196686 8.34351284 8.34441009 8.34540497 8.34695757 8.34958575 8.35311101 8.35311101 8.35311101 8.35311101 8.35311101 8.35311101 8.35311101 8.35311101 8.35311101 8.35311101 8.35311101 8.35311101 8.35311101 8.35311101 8.35311101 8.35311101 8.35311101 8.35311101 8.35311101 8.35311101 8.35311101 8.35311101 8.34786675 8.34494900 8.34205115 8.33946581 8.33758333 8.33626331 8.33522358 8.33420664 8.33338528 8.33295217 8.33295217 8.33338528 8.33420664 8.33522358 8.33626331 8.33758333 8.33946581 8.34205115 8.34494900 8.34786675 8.35311101 8.35311101 8.35311101 8.35311101 8.35311101 8.35311101 8.35311101 8.35311101 8.35311101 8.35311101 8.35311101 8.35311101 8.35311101 8.35311101 8.35311101 8.35311101 8.35311101 8.35311101 8.34819159 8.34465987 8.34052448 8.33722200 8.33449469 8.33228194 8.33065930 8.32953465 8.32872864 8.32809272 8.32762369 8.32737632 8.32737632 8.32762369 8.32809272 8.32872864 8.32953465 8.33065930 8.33228194 8.33449469 8.33722200 8.34052448 8.34465987 8.34819159 8.35311101 8.35311101 8.35311101 8.35311101 8.35311101 8.35311101 8.35311101 8.35311101 8.35311101 8.35311101 8.35311101 8.35311101 8.35311101 8.35311101 8.35311101 8.34685182 8.34155641 8.33717509 8.33335553 8.33037368 8.32816537 8.32660844 8.32560599 8.32501925 8.32468809 8.32448499 8.32435404 8.32428754 8.32428754 8.32435404 8.32448499 8.32468809 8.32501925 8.32560599 8.32660844 8.32816537 8.33037368 8.33335553 8.33717509 8.34155641 8.34685182 8.35311101 8.35311101 8.35311101 8.35311101 8.35311101 8.35311101 8.35311101 8.35311101 8.35311101 8.35311101 8.35311101 8.35311101 8.34999628 8.34553117 8.33985181 8.33468437 8.33047246 8.32726181 8.32506657 8.32375216 8.32311812 8.32296526 8.32310399 8.32336801 8.32363471 8.32383477 8.32393931 8.32393931 8.32383477 8.32363471 8.32336801 8.32310399 8.32296526 8.32311812 8.32375216 8.32506657 8.32726181 8.33047246 8.33468437 8.33985181 8.34553117 8.34999628 8.35311101 8.35311101 8.35311101 8.35311101 8.35311101 8.35311101 8.35311101 8.35311101 8.35311101 8.35311101 8.34555122 8.33916515 8.33333868 8.32852462 8.32499112 8.32275516 8.32167723 8.32150349 8.32194158 8.32272222 8.32362431 8.32448252 8.32518747 8.32567841 8.32592836 8.32592836 8.32567841 8.32518747 8.32448252 8.32362431 8.32272222 8.32194158 8.32150349 8.32167723 8.32275516 8.32499112 8.32852462 8.33333868 8.33916515 8.34555122 8.35311101 8.35311101 8.35311101 8.35311101 8.35311101 8.35311101 8.35311101 8.35311101 8.35311101 8.34701404 8.33995422 8.33332386 8.32771048 8.32354914 8.32100644 8.31997815 8.32017280 8.32120954 8.32271092 8.32436383 8.32594085 8.32729552 8.32834591 8.32905479 8.32941018 8.32941018 8.32905479 8.32834591 8.32729552 8.32594085 8.32436383 8.32271092 8.32120954 8.32017280 8.31997815 8.32100644 8.32354914 8.32771048 8.33332386 8.33995422 8.34701404 8.35311101 8.35311101 8.35311101 8.35311101 8.35311101 8.35311101 8.35311101 8.34870198 8.34215590 8.33498297 8.32841425 8.32324854 8.31991979 8.31849184 8.31871523 8.32014888 8.32229667 8.32471603 8.32707550 8.32916366 8.33086825 8.33214493 8.33298754 8.33340477 8.33340477 8.33298754 8.33214493 8.33086825 8.32916366 8.32707550 8.32471603 8.32229667 8.32014888 8.31871523 8.31849184 8.31991979 8.32324854 8.32841425 8.33498297 8.34215590 8.34870198 8.35311101 8.35311101 8.35311101 8.35311101 8.35311101 8.35311101 8.34619341 8.33863523 8.33114933 8.32470112 8.32004503 8.31755020 8.31716448 8.31849685 8.32097531 8.32401272 8.32712529 8.32998301 8.33240319 8.33431363 8.33570897 8.33661388 8.33705736 8.33705736 8.33661388 8.33570897 8.33431363 8.33240319 8.32998301 8.32712529 8.32401272 8.32097531 8.31849685 8.31716448 8.31755020 8.32004503 8.32470112 8.33114933 8.33863523 8.34619341 8.35311101 8.35311101 8.35311101 8.35311101 8.35311101 8.35311101 8.34458430 8.33629391 8.32857295 8.32225369 8.31803052 8.31620118 8.31661313 8.31876346 8.32198399 8.32562669 8.32918674 8.33234476 8.33494696 8.33695567 8.33839701 8.33931975 8.33976840 8.33976840 8.33931975 8.33839701 8.33695567 8.33494696 8.33234476 8.32918674 8.32562669 8.32198399 8.31876346 8.31661313 8.31620118 8.31803052 8.32225369 8.32857295 8.33629391 8.34458430 8.35311101 8.35311101 8.35311101 8.35311101 8.35311101 8.35055349 8.34327071 8.33501855 8.32726394 8.32104398 8.31707107 8.31560986 8.31645213 8.31903388 8.32263635 8.32658162 8.33035692 8.33365166 8.33632976 8.33837333 8.33982590 8.34074926 8.34119625 8.34119625 8.34074926 8.33982590 8.33837333 8.33632976 8.33365166 8.33035692 8.32658162 8.32263635 8.31903388 8.31645213 8.31560986 8.31707107 8.32104398 8.32726394 8.33501855 8.34327071 8.35055349 8.35311101 8.35311101 8.35311101 8.35311101 8.35055349 8.34327071 8.33501855 8.32726394 8.32104398 8.31707107 8.31560986 8.31645213 8.31903388 8.32263635 8.32658162 8.33035692 8.33365166 8.33632976 8.33837333 8.33982590 8.34074926 8.34119625 8.34119625 8.34074926 8.33982590 8.33837333 8.33632976 8.33365166 8.33035692 8.32658162 8.32263635 8.31903388 8.31645213 8.31560986 8.31707107 8.32104398 8.32726394 8.33501855 8.34327071 8.35055349 8.35311101 8.35311101 8.35311101 8.35311101 8.35311101 8.34458430 8.33629391 8.32857295 8.32225369 8.31803052 8.31620118 8.31661313 8.31876346 8.32198399 8.32562669 8.32918674 8.33234476 8.33494696 8.33695567 8.33839701 8.33931975 8.33976840 8.33976840 8.33931975 8.33839701 8.33695567 8.33494696 8.33234476 8.32918674 8.32562669 8.32198399 8.31876346 8.31661313 8.31620118 8.31803052 8.32225369 8.32857295 8.33629391 8.34458430 8.35311101 8.35311101 8.35311101 8.35311101 8.35311101 8.35311101 8.34619341 8.33863523 8.33114933 8.32470112 8.32004503 8.31755020 8.31716448 8.31849685 8.32097531 8.32401272 8.32712529 8.32998301 8.33240319 8.33431363 8.33570897 8.33661388 8.33705736 8.33705736 8.33661388 8.33570897 8.33431363 8.33240319 8.32998301 8.32712529 8.32401272 8.32097531 8.31849685 8.31716448 8.31755020 8.32004503 8.32470112 8.33114933 8.33863523 8.34619341 8.35311101 8.35311101 8.35311101 8.35311101 8.35311101 8.35311101 8.34870198 8.34215590 8.33498297 8.32841425 8.32324854 8.31991979 8.31849184 8.31871523 8.32014888 8.32229667 8.32471603 8.32707550 8.32916366 8.33086825 8.33214493 8.33298754 8.33340477 8.33340477 8.33298754 8.33214493 8.33086825 8.32916366 8.32707550 8.32471603 8.32229667 8.32014888 8.31871523 8.31849184 8.31991979 8.32324854 8.32841425 8.33498297 8.34215590 8.34870198 8.35311101 8.35311101 8.35311101 8.35311101 8.35311101 8.35311101 8.35311101 8.34701404 8.33995422 8.33332386 8.32771048 8.32354914 8.32100644 8.31997815 8.32017280 8.32120954 8.32271092 8.32436383 8.32594085 8.32729552 8.32834591 8.32905479 8.32941018 8.32941018 8.32905479 8.32834591 8.32729552 8.32594085 8.32436383 8.32271092 8.32120954 8.32017280 8.31997815 8.32100644 8.32354914 8.32771048 8.33332386 8.33995422 8.34701404 8.35311101 8.35311101 8.35311101 8.35311101 8.35311101 8.35311101 8.35311101 8.35311101 8.35311101 8.34555122 8.33916515 8.33333868 8.32852462 8.32499112 8.32275516 8.32167723 8.32150349 8.32194158 8.32272222 8.32362431 8.32448252 8.32518747 8.32567841 8.32592836 8.32592836 8.32567841 8.32518747 8.32448252 8.32362431 8.32272222 8.32194158 8.32150349 8.32167723 8.32275516 8.32499112 8.32852462 8.33333868 8.33916515 8.34555122 8.35311101 8.35311101 8.35311101 8.35311101 8.35311101 8.35311101 8.35311101 8.35311101 8.35311101 8.35311101 8.34999628 8.34553117 8.33985181 8.33468437 8.33047246 8.32726181 8.32506657 8.32375216 8.32311812 8.32296526 8.32310399 8.32336801 8.32363471 8.32383477 8.32393931 8.32393931 8.32383477 8.32363471 8.32336801 8.32310399 8.32296526 8.32311812 8.32375216 8.32506657 8.32726181 8.33047246 8.33468437 8.33985181 8.34553117 8.34999628 8.35311101 8.35311101 8.35311101 8.35311101 8.35311101 8.35311101 8.35311101 8.35311101 8.35311101 8.35311101 8.35311101 8.35311101 8.34685182 8.34155641 8.33717509 8.33335553 8.33037368 8.32816537 8.32660844 8.32560599 8.32501925 8.32468809 8.32448499 8.32435404 8.32428754 8.32428754 8.32435404 8.32448499 8.32468809 8.32501925 8.32560599 8.32660844 8.32816537 8.33037368 8.33335553 8.33717509 8.34155641 8.34685182 8.35311101 8.35311101 8.35311101 8.35311101 8.35311101 8.35311101 8.35311101 8.35311101 8.35311101 8.35311101 8.35311101 8.35311101 8.35311101 8.35311101 8.35311101 8.34819159 8.34465987 8.34052448 8.33722200 8.33449469 8.33228194 8.33065930 8.32953465 8.32872864 8.32809272 8.32762369 8.32737632 8.32737632 8.32762369 8.32809272 8.32872864 8.32953465 8.33065930 8.33228194 8.33449469 8.33722200 8.34052448 8.34465987 8.34819159 8.35311101 8.35311101 8.35311101 8.35311101 8.35311101 8.35311101 8.35311101 8.35311101 8.35311101 8.35311101 8.35311101 8.35311101 8.35311101 8.35311101 8.35311101 8.35311101 8.35311101 8.35311101 8.34786675 8.34494900 8.34205115 8.33946581 8.33758333 8.33626331 8.33522358 8.33420664 8.33338528 8.33295217 8.33295217 8.33338528 8.33420664 8.33522358 8.33626331 8.33758333 8.33946581 8.34205115 8.34494900 8.34786675 8.35311101 8.35311101 8.35311101 8.35311101 8.35311101 8.35311101 8.35311101 8.35311101 8.35311101 8.35311101 8.35311101 8.35311101 8.35311101 8.35311101 8.35311101 8.35311101 8.35311101 8.35311101 8.35311101 8.35311101 8.35311101 8.35311101 8.34958575 8.34695757 8.34540497 8.34441009 8.34351284 8.34196686 8.34069085 8.34007183 8.34007183 8.34069085 8.34196686 8.34351284 8.34441009 8.34540497 8.34695757 8.34958575 8.35311101 8.35311101 8.35311101 8.35311101 8.35311101 8.35311101 8.35311101 8.35311101 8.35311101 8.35311101 8.35311101 8.35311101 8.35311101 8.35311101 8.35311101 8.35311101 8.35311101 8.35311101 8.35311101 8.35311101 8.35311101 8.35311101 8.35311101 8.35311101 8.35311101 8.35311101 8.35311101 8.35311101 8.35311101 8.34977289 8.34794397 8.34726704 8.34726704 8.34794397 8.34977289 8.35311101 8.35311101 8.35311101 8.35311101 8.35311101 8.35311101 8.35311101 8.35311101 8.35311101 8.35311101 8.35311101 8.35311101 8.35311101 8.35311101 8.35311101 8.35311101 8.35311101 8.35311101 8.35311101 8.35311101 8.35311101 8.35311101 8.35311101 8.35311101 8.35311101 8.35311101 8.35311101 8.35311101 8.35311101 8.35311101 8.35311101 8.35311101 8.35311101 8.35311101 8.35311101 8.35311101 8.35311101 8.35311101 8.35311101 8.35311101 8.35311101 8.35311101 8.35311101 8.35311101 8.35311101 8.35311101 8.35311101 8.35311101 8.35311101 8.35311101 8.35311101 8.35311101 8.35311101 8.35311101 8.35311101 8.35311101 8.35311101 8.35311101 8.35311101 8.35311101 8.35311101 8.35311101 8.35311101 8.35311101 8.35311101 8.35311101 8.35311101 8.35311101 8.35311101 8.35311101 8.35311101 8.35311101 8.35311101 8.35311101 8.35311101 8.35311101 8.35311101 8.35311101 8.35311101 8.35311101 8.35311101 8.35311101 8.35311101 8.35311101 8.35311101 8.35311101 8.35311101 8.35311101 8.35311101 8.35311101 8.35311101 8.35311101 8.35311101 8.35311101 8.35311101 8.35311101 8.35311101 8.35311101 8.35311101 8.35311101 8.35311101 8.35311101 8.35311101 8.35311101 8.35311101 8.35311101 8.35311101 8.35311101 8.35311101 8.35311101 8.35311101 8.35311101 8.35311101 8.35311101 8.35311101 8.35311101 8.35311101 8.35311101 8.35311101 8.35311101 8.35311101 8.35311101 8.35311101 8.35311101 8.35311101 8.35311101 8.35311101 8.35311101 8.35311101 8.35311101 8.35311101 8.35311101 8.35311101 8.35311101 8.35311101 8.35311101 8.35311101 8.35311101 8.35311101 8.35311101 8.35311101 8.35311101 8.35311101 8.35311101 8.35311101 8.35311101 8.35311101 8.35311101 8.35311101 8.35311101 8.35311101 8.35311101 8.35311101 8.35311101 8.35311101 8.35311101 8.35311101 8.35311101 8.35311101 8.35311101 8.35311101 8.35311101 8.35311101 8.35311101 8.35311101 8.35311101 8.35311101 8.35311101 8.35311101 8.35311101 8.35311101 8.35311101 8.35311101 8.35311101 8.35311101 8.35311101 8.35311101 8.35311101 8.35311101 8.35311101 8.35311101 8.35311101 8.35311101 8.35311101 8.35311101 8.35311101 8.35311101 8.35311101 8.35311101 8.35311101 8.35311101 8.35311101 8.35311101 8.35311101 8.35311101 8.35311101 8.35311101 8.35311101 8.35311101 8.35311101 8.35311101 8.35311101 8.35311101 8.35311101 8.35311101 8.35311101 8.35311101 8.35311101 8.35311101 8.35311101 8.35311101 8.35311101 8.35311101 8.35311101 8.35311101 8.35311101 8.35311101 8.35311101 8.35311101 8.35311101 8.35311101 8.35311101 8.35311101 8.35311101 8.35311101 8.35311101 8.35311101 8.35311101 8.35311101 8.35311101 8.35311101 8.35311101 8.35311101 8.35311101 8.35311101 8.35311101 8.35311101 8.35311101 8.35311101 8.35311101 8.35311101 8.35311101 8.35311101 8.35311101 8.35311101 8.35311101 8.35311101 8.35311101 8.35311101 8.35311101 8.35311101 8.35311101 8.35311101 8.35311101 8.35311101 8.35311101 8.35311101 8.35311101 8.35311101 8.35311101 8.35311101 8.35311101 8.35311101 8.35311101 8.35311101 8.35311101 8.35311101 8.35311101 8.35311101 8.35311101 8.35311101 8.35311101 8.35311101 8.35311101 8.35311101 8.35311101 8.35311101 8.35311101 8.35311101 8.35311101 8.35311101 8.35311101 8.35311101 8.35311101 8.35311101 8.35311101 8.35311101 8.35311101 8.35311101 8.35311101 8.35311101 8.35311101 8.35311101 8.35311101 8.35311101 8.35311101 8.35311101 8.35311101 8.35311101 8.35311101 8.35311101 8.35311101 8.35311101 8.35311101 8.35311101 8.35311101 8.35311101 8.35311101 8.35311101 8.35311101 8.35311101 8.35311101 8.35311101 8.35311101 8.35311101 8.35311101 8.35311101 8.35311101 8.35311101 8.35311101 8.35311101 8.35311101 8.35311101 8.35311101 8.35311101 8.35311101 8.35311101 8.35311101 8.35311101 8.35311101 8.35311101 8.35311101 8.35311101 8.35311101 8.35311101 8.35311101 8.35311101 