# vtk DataFile Version 3.0
VTK - Matlab export
ASCII
DATASET STRUCTURED_POINTS
DIMENSIONS 40 40 1
SPACING 1 1 1
ORIGIN 0 0 0
POINT_DATA 1600
SCALARS Proofstrength float 1
LOOKUP_TABLE default
140.71398941 140.71398941 140.71398941 140.71398941 140.71398941 140.71398941 140.71398941 140.71398941 140.71398941 140.71398941 140.71398941 140.71398941 140.71398941 140.71398941 140.71398941 140.71398941 140.71398941 140.71398941 140.71398941 140.71398941 140.71398941 140.71398941 140.71398941 140.71398941 140.71398941 140.71398941 140.71398941 140.71398941 140.71398941 140.71398941 140.71398941 140.71398941 140.71398941 140.71398941 140.71398941 140.71398941 140.71398941 140.71398941 140.71398941 140.71398941 140.71398941 140.71398941 140.71398941 140.71398941 140.71398941 140.71398941 140.71398941 140.71398941 140.71398941 140.71398941 140.71398941 140.71398941 140.71398941 140.71398941 140.71398941 140.71398941 140.71398941 140.71398941 140.71398941 140.71398941 140.71398941 140.71398941 140.71398941 140.71398941 140.71398941 140.71398941 140.71398941 140.71398941 140.71398941 140.71398941 140.71398941 140.71398941 140.71398941 140.71398941 140.71398941 140.71398941 140.71398941 140.71398941 140.71398941 140.71398941 140.71398941 140.71398941 140.71398941 140.71398941 140.71398941 140.71398941 140.71398941 140.71398941 140.71398941 140.71398941 140.71398941 140.71398941 140.71398941 140.71398941 140.71398941 140.71398941 140.71398941 140.71398941 140.71398941 140.71398941 140.71398941 140.71398941 140.71398941 140.71398941 140.71398941 140.71398941 140.71398941 140.71398941 140.71398941 140.71398941 140.71398941 140.71398941 140.71398941 140.71398941 140.71398941 140.71398941 140.71398941 140.71398941 140.71398941 140.71398941 140.71398941 140.71398941 140.71398941 140.71398941 140.71398941 140.71398941 140.71398941 140.71398941 140.71398941 140.71398941 140.71398941 140.71398941 140.71398941 140.71398941 140.71398941 140.71398941 140.71398941 140.71398941 140.71398941 140.71398941 140.71398941 140.71398941 140.71398941 140.71398941 140.71398941 140.71398941 140.71398941 140.71398941 140.71398941 140.71398941 140.71398941 140.71398941 140.71398941 140.71398941 140.71398941 140.71398941 140.71398941 140.71398941 140.71398941 140.71398941 140.71398941 140.71398941 140.71398941 140.71398941 140.71398941 140.71398941 140.71398941 140.71398941 140.71398941 140.71398941 140.71398941 140.71398941 140.71398941 140.71398941 140.71398941 140.71398941 140.71398941 140.71398941 140.71398941 140.71398941 140.71398941 140.71398941 140.71398941 140.71398941 140.71398941 140.71398941 140.71398941 140.71398941 140.71398941 140.71398941 140.71398941 140.71398941 140.71398941 140.71398941 140.71398941 140.71398941 140.71398941 140.71398941 140.71398941 140.71398941 140.71398941 140.71398941 140.71398941 140.71398941 140.71398941 140.71398941 140.71398941 140.71398941 140.71398941 140.71398941 140.71398941 140.71398941 140.71398941 140.71398941 140.71398941 140.71398941 140.71398941 140.71398941 140.71398941 140.71398941 140.71398941 140.71398941 140.71398941 140.71398941 140.71398941 140.71398941 140.71398941 140.71398941 140.71398941 140.71398941 140.71398941 140.71398941 140.71398941 140.71398941 140.71398941 140.71398941 140.71398941 140.71398941 140.71398941 140.71398941 140.71398941 140.71398941 140.71398941 140.71398941 140.71398941 140.71398941 140.71398941 140.71398941 140.71398941 140.71398941 140.71398941 140.71398941 140.71398941 140.71398941 140.71398941 140.71398941 140.71398941 140.71398941 140.71398941 140.71398941 140.71398941 140.71398941 140.71398941 140.71398941 140.71398941 140.71398941 140.71398941 140.71398941 140.71398941 140.71398941 140.71398941 140.71398941 140.71398941 140.71398941 140.71398941 140.71398941 140.71398941 140.71398941 140.71398941 140.71398941 140.71398941 140.71398941 140.71398941 140.71398941 140.71398941 140.71398941 140.71398941 140.71398941 140.71398941 140.71398941 140.71398941 140.71398941 140.71398941 140.71398941 140.71398941 140.71398941 140.71398941 140.71398941 140.71398941 140.71398941 140.71398941 140.71398941 140.71398941 140.71398941 140.71398941 140.71398941 140.71398941 140.71398941 140.71398941 140.71398941 140.71398941 140.71398941 140.71398941 140.71398941 140.71398941 140.71398941 140.71398941 140.71398941 140.71398941 140.71398941 140.71398941 140.71398941 140.71398941 140.71398941 140.71398941 140.71398941 140.71398941 140.71398941 140.71398941 140.71398941 140.71398941 140.71398941 140.71398941 140.71398941 140.71398941 140.71398941 140.71398941 140.71599543 140.71707263 140.71746567 140.71746567 140.71707263 140.71599543 140.71398941 140.71398941 140.71398941 140.71398941 140.71398941 140.71398941 140.71398941 140.71398941 140.71398941 140.71398941 140.71398941 140.71398941 140.71398941 140.71398941 140.71398941 140.71398941 140.71398941 140.71398941 140.71398941 140.71398941 140.71398941 140.71398941 140.71398941 140.71398941 140.71398941 140.71398941 140.71398941 140.71398941 140.71398941 140.71610503 140.71768902 140.71865069 140.71929293 140.71987274 140.72081742 140.72158029 140.72194694 140.72194694 140.72158029 140.72081742 140.71987274 140.71929293 140.71865069 140.71768902 140.71610503 140.71398941 140.71398941 140.71398941 140.71398941 140.71398941 140.71398941 140.71398941 140.71398941 140.71398941 140.71398941 140.71398941 140.71398941 140.71398941 140.71398941 140.71398941 140.71398941 140.71398941 140.71398941 140.71398941 140.71398941 140.71398941 140.71398941 140.71712816 140.71891838 140.72073197 140.72238710 140.72364953 140.72458662 140.72534123 140.72604553 140.72659341 140.72687812 140.72687812 140.72659341 140.72604553 140.72534123 140.72458662 140.72364953 140.72238710 140.72073197 140.71891838 140.71712816 140.71398941 140.71398941 140.71398941 140.71398941 140.71398941 140.71398941 140.71398941 140.71398941 140.71398941 140.71398941 140.71398941 140.71398941 140.71398941 140.71398941 140.71398941 140.71398941 140.71398941 140.71398941 140.71689776 140.71905827 140.72165053 140.72383372 140.72574152 140.72738147 140.72868349 140.72967373 140.73042976 140.73101876 140.73143550 140.73164994 140.73164994 140.73143550 140.73101876 140.73042976 140.72967373 140.72868349 140.72738147 140.72574152 140.72383372 140.72165053 140.71905827 140.71689776 140.71398941 140.71398941 140.71398941 140.71398941 140.71398941 140.71398941 140.71398941 140.71398941 140.71398941 140.71398941 140.71398941 140.71398941 140.71398941 140.71398941 140.71398941 140.71766093 140.72089130 140.72374419 140.72641598 140.72871605 140.73063296 140.73218393 140.73337890 140.73426174 140.73489922 140.73535096 140.73564620 140.73579267 140.73579267 140.73564620 140.73535096 140.73489922 140.73426174 140.73337890 140.73218393 140.73063296 140.72871605 140.72641598 140.72374419 140.72089130 140.71766093 140.71398941 140.71398941 140.71398941 140.71398941 140.71398941 140.71398941 140.71398941 140.71398941 140.71398941 140.71398941 140.71398941 140.71398941 140.71574113 140.71834448 140.72181465 140.72522362 140.72832643 140.73105271 140.73331754 140.73510919 140.73646164 140.73742941 140.73808559 140.73851064 140.73877531 140.73892882 140.73899924 140.73899924 140.73892882 140.73877531 140.73851064 140.73808559 140.73742941 140.73646164 140.73510919 140.73331754 140.73105271 140.72832643 140.72522362 140.72181465 140.71834448 140.71574113 140.71398941 140.71398941 140.71398941 140.71398941 140.71398941 140.71398941 140.71398941 140.71398941 140.71398941 140.71398941 140.71823143 140.72203498 140.72584288 140.72943543 140.73262413 140.73529841 140.73740298 140.73894892 140.73999837 140.74064262 140.74098616 140.74113168 140.74116688 140.74115658 140.74114168 140.74114168 140.74115658 140.74116688 140.74113168 140.74098616 140.74064262 140.73999837 140.73894892 140.73740298 140.73529841 140.73262413 140.72943543 140.72584288 140.72203498 140.71823143 140.71398941 140.71398941 140.71398941 140.71398941 140.71398941 140.71398941 140.71398941 140.71398941 140.71398941 140.71730973 140.72135254 140.72550772 140.72955377 140.73325615 140.73642741 140.73895578 140.74080781 140.74202380 140.74269943 140.74296141 140.74294524 140.74277725 140.74256232 140.74237795 140.74227381 140.74227381 140.74237795 140.74256232 140.74277725 140.74294524 140.74296141 140.74269943 140.74202380 140.74080781 140.73895578 140.73642741 140.73325615 140.72955377 140.72550772 140.72135254 140.71730973 140.71398941 140.71398941 140.71398941 140.71398941 140.71398941 140.71398941 140.71398941 140.71632132 140.71991621 140.72415426 140.72854562 140.73274844 140.73649085 140.73957722 140.74190283 140.74345636 140.74430870 140.74458959 140.74445904 140.74408087 140.74360279 140.74314448 140.74279309 140.74260409 140.74260409 140.74279309 140.74314448 140.74360279 140.74408087 140.74445904 140.74458959 140.74430870 140.74345636 140.74190283 140.73957722 140.73649085 140.73274844 140.72854562 140.72415426 140.71991621 140.71632132 140.71398941 140.71398941 140.71398941 140.71398941 140.71398941 140.71398941 140.71763485 140.72181120 140.72636306 140.73095849 140.73526554 140.73900402 140.74197712 140.74409037 140.74535362 140.74586575 140.74578676 140.74530504 140.74460780 140.74385987 140.74319209 140.74269825 140.74243729 140.74243729 140.74269825 140.74319209 140.74385987 140.74460780 140.74530504 140.74578676 140.74586575 140.74535362 140.74409037 140.74197712 140.73900402 140.73526554 140.73095849 140.72636306 140.72181120 140.71763485 140.71398941 140.71398941 140.71398941 140.71398941 140.71398941 140.71398941 140.71847598 140.72308288 140.72788388 140.73262648 140.73699601 140.74071316 140.74358362 140.74552255 140.74655663 140.74680623 140.74645397 140.74570893 140.74477496 140.74382860 140.74300797 140.74241081 140.74209788 140.74209788 140.74241081 140.74300797 140.74382860 140.74477496 140.74570893 140.74645397 140.74680623 140.74655663 140.74552255 140.74358362 140.74071316 140.73699601 140.73262648 140.72788388 140.72308288 140.71847598 140.71398941 140.71398941 140.71398941 140.71398941 140.71398941 140.71531475 140.71915577 140.72377628 140.72866869 140.73347935 140.73787607 140.74157604 140.74438620 140.74622725 140.74713520 140.74724205 140.74674256 140.74585670 140.74479691 140.74374565 140.74284462 140.74219330 140.74185318 140.74185318 140.74219330 140.74284462 140.74374565 140.74479691 140.74585670 140.74674256 140.74724205 140.74713520 140.74622725 140.74438620 140.74157604 140.73787607 140.73347935 140.72866869 140.72377628 140.71915577 140.71531475 140.71398941 140.71398941 140.71398941 140.71398941 140.71531475 140.71915577 140.72377628 140.72866869 140.73347935 140.73787607 140.74157604 140.74438620 140.74622725 140.74713520 140.74724205 140.74674256 140.74585670 140.74479691 140.74374565 140.74284462 140.74219330 140.74185318 140.74185318 140.74219330 140.74284462 140.74374565 140.74479691 140.74585670 140.74674256 140.74724205 140.74713520 140.74622725 140.74438620 140.74157604 140.73787607 140.73347935 140.72866869 140.72377628 140.71915577 140.71531475 140.71398941 140.71398941 140.71398941 140.71398941 140.71398941 140.71847598 140.72308288 140.72788388 140.73262648 140.73699601 140.74071316 140.74358362 140.74552255 140.74655663 140.74680623 140.74645397 140.74570893 140.74477496 140.74382860 140.74300797 140.74241081 140.74209788 140.74209788 140.74241081 140.74300797 140.74382860 140.74477496 140.74570893 140.74645397 140.74680623 140.74655663 140.74552255 140.74358362 140.74071316 140.73699601 140.73262648 140.72788388 140.72308288 140.71847598 140.71398941 140.71398941 140.71398941 140.71398941 140.71398941 140.71398941 140.71763485 140.72181120 140.72636306 140.73095849 140.73526554 140.73900402 140.74197712 140.74409037 140.74535362 140.74586575 140.74578676 140.74530504 140.74460780 140.74385987 140.74319209 140.74269825 140.74243729 140.74243729 140.74269825 140.74319209 140.74385987 140.74460780 140.74530504 140.74578676 140.74586575 140.74535362 140.74409037 140.74197712 140.73900402 140.73526554 140.73095849 140.72636306 140.72181120 140.71763485 140.71398941 140.71398941 140.71398941 140.71398941 140.71398941 140.71398941 140.71632132 140.71991621 140.72415426 140.72854562 140.73274844 140.73649085 140.73957722 140.74190283 140.74345636 140.74430870 140.74458959 140.74445904 140.74408087 140.74360279 140.74314448 140.74279309 140.74260409 140.74260409 140.74279309 140.74314448 140.74360279 140.74408087 140.74445904 140.74458959 140.74430870 140.74345636 140.74190283 140.73957722 140.73649085 140.73274844 140.72854562 140.72415426 140.71991621 140.71632132 140.71398941 140.71398941 140.71398941 140.71398941 140.71398941 140.71398941 140.71398941 140.71730973 140.72135254 140.72550772 140.72955377 140.73325615 140.73642741 140.73895578 140.74080781 140.74202380 140.74269943 140.74296141 140.74294524 140.74277725 140.74256232 140.74237795 140.74227381 140.74227381 140.74237795 140.74256232 140.74277725 140.74294524 140.74296141 140.74269943 140.74202380 140.74080781 140.73895578 140.73642741 140.73325615 140.72955377 140.72550772 140.72135254 140.71730973 140.71398941 140.71398941 140.71398941 140.71398941 140.71398941 140.71398941 140.71398941 140.71398941 140.71398941 140.71823143 140.72203498 140.72584288 140.72943543 140.73262413 140.73529841 140.73740298 140.73894892 140.73999837 140.74064262 140.74098616 140.74113168 140.74116688 140.74115658 140.74114168 140.74114168 140.74115658 140.74116688 140.74113168 140.74098616 140.74064262 140.73999837 140.73894892 140.73740298 140.73529841 140.73262413 140.72943543 140.72584288 140.72203498 140.71823143 140.71398941 140.71398941 140.71398941 140.71398941 140.71398941 140.71398941 140.71398941 140.71398941 140.71398941 140.71398941 140.71574113 140.71834448 140.72181465 140.72522362 140.72832643 140.73105271 140.73331754 140.73510919 140.73646164 140.73742941 140.73808559 140.73851064 140.73877531 140.73892882 140.73899924 140.73899924 140.73892882 140.73877531 140.73851064 140.73808559 140.73742941 140.73646164 140.73510919 140.73331754 140.73105271 140.72832643 140.72522362 140.72181465 140.71834448 140.71574113 140.71398941 140.71398941 140.71398941 140.71398941 140.71398941 140.71398941 140.71398941 140.71398941 140.71398941 140.71398941 140.71398941 140.71398941 140.71766093 140.72089130 140.72374419 140.72641598 140.72871605 140.73063296 140.73218393 140.73337890 140.73426174 140.73489922 140.73535096 140.73564620 140.73579267 140.73579267 140.73564620 140.73535096 140.73489922 140.73426174 140.73337890 140.73218393 140.73063296 140.72871605 140.72641598 140.72374419 140.72089130 140.71766093 140.71398941 140.71398941 140.71398941 140.71398941 140.71398941 140.71398941 140.71398941 140.71398941 140.71398941 140.71398941 140.71398941 140.71398941 140.71398941 140.71398941 140.71398941 140.71689776 140.71905827 140.72165053 140.72383372 140.72574152 140.72738147 140.72868349 140.72967373 140.73042976 140.73101876 140.73143550 140.73164994 140.73164994 140.73143550 140.73101876 140.73042976 140.72967373 140.72868349 140.72738147 140.72574152 140.72383372 140.72165053 140.71905827 140.71689776 140.71398941 140.71398941 140.71398941 140.71398941 140.71398941 140.71398941 140.71398941 140.71398941 140.71398941 140.71398941 140.71398941 140.71398941 140.71398941 140.71398941 140.71398941 140.71398941 140.71398941 140.71398941 140.71712816 140.71891838 140.72073197 140.72238710 140.72364953 140.72458662 140.72534123 140.72604553 140.72659341 140.72687812 140.72687812 140.72659341 140.72604553 140.72534123 140.72458662 140.72364953 140.72238710 140.72073197 140.71891838 140.71712816 140.71398941 140.71398941 140.71398941 140.71398941 140.71398941 140.71398941 140.71398941 140.71398941 140.71398941 140.71398941 140.71398941 140.71398941 140.71398941 140.71398941 140.71398941 140.71398941 140.71398941 140.71398941 140.71398941 140.71398941 140.71398941 140.71398941 140.71610503 140.71768902 140.71865069 140.71929293 140.71987274 140.72081742 140.72158029 140.72194694 140.72194694 140.72158029 140.72081742 140.71987274 140.71929293 140.71865069 140.71768902 140.71610503 140.71398941 140.71398941 140.71398941 140.71398941 140.71398941 140.71398941 140.71398941 140.71398941 140.71398941 140.71398941 140.71398941 140.71398941 140.71398941 140.71398941 140.71398941 140.71398941 140.71398941 140.71398941 140.71398941 140.71398941 140.71398941 140.71398941 140.71398941 140.71398941 140.71398941 140.71398941 140.71398941 140.71398941 140.71398941 140.71599543 140.71707263 140.71746567 140.71746567 140.71707263 140.71599543 140.71398941 140.71398941 140.71398941 140.71398941 140.71398941 140.71398941 140.71398941 140.71398941 140.71398941 140.71398941 140.71398941 140.71398941 140.71398941 140.71398941 140.71398941 140.71398941 140.71398941 140.71398941 140.71398941 140.71398941 140.71398941 140.71398941 140.71398941 140.71398941 140.71398941 140.71398941 140.71398941 140.71398941 140.71398941 140.71398941 140.71398941 140.71398941 140.71398941 140.71398941 140.71398941 140.71398941 140.71398941 140.71398941 140.71398941 140.71398941 140.71398941 140.71398941 140.71398941 140.71398941 140.71398941 140.71398941 140.71398941 140.71398941 140.71398941 140.71398941 140.71398941 140.71398941 140.71398941 140.71398941 140.71398941 140.71398941 140.71398941 140.71398941 140.71398941 140.71398941 140.71398941 140.71398941 140.71398941 140.71398941 140.71398941 140.71398941 140.71398941 140.71398941 140.71398941 140.71398941 140.71398941 140.71398941 140.71398941 140.71398941 140.71398941 140.71398941 140.71398941 140.71398941 140.71398941 140.71398941 140.71398941 140.71398941 140.71398941 140.71398941 140.71398941 140.71398941 140.71398941 140.71398941 140.71398941 140.71398941 140.71398941 140.71398941 140.71398941 140.71398941 140.71398941 140.71398941 140.71398941 140.71398941 140.71398941 140.71398941 140.71398941 140.71398941 140.71398941 140.71398941 140.71398941 140.71398941 140.71398941 140.71398941 140.71398941 140.71398941 140.71398941 140.71398941 140.71398941 140.71398941 140.71398941 140.71398941 140.71398941 140.71398941 140.71398941 140.71398941 140.71398941 140.71398941 140.71398941 140.71398941 140.71398941 140.71398941 140.71398941 140.71398941 140.71398941 140.71398941 140.71398941 140.71398941 140.71398941 140.71398941 140.71398941 140.71398941 140.71398941 140.71398941 140.71398941 140.71398941 140.71398941 140.71398941 140.71398941 140.71398941 140.71398941 140.71398941 140.71398941 140.71398941 140.71398941 140.71398941 140.71398941 140.71398941 140.71398941 140.71398941 140.71398941 140.71398941 140.71398941 140.71398941 140.71398941 140.71398941 140.71398941 140.71398941 140.71398941 140.71398941 140.71398941 140.71398941 140.71398941 140.71398941 140.71398941 140.71398941 140.71398941 140.71398941 140.71398941 140.71398941 140.71398941 140.71398941 140.71398941 140.71398941 140.71398941 140.71398941 140.71398941 140.71398941 140.71398941 140.71398941 140.71398941 140.71398941 140.71398941 140.71398941 140.71398941 140.71398941 140.71398941 140.71398941 140.71398941 140.71398941 140.71398941 140.71398941 140.71398941 140.71398941 140.71398941 140.71398941 140.71398941 140.71398941 140.71398941 140.71398941 140.71398941 140.71398941 140.71398941 140.71398941 140.71398941 140.71398941 140.71398941 140.71398941 140.71398941 140.71398941 140.71398941 140.71398941 140.71398941 140.71398941 140.71398941 140.71398941 140.71398941 140.71398941 140.71398941 140.71398941 140.71398941 140.71398941 140.71398941 140.71398941 140.71398941 140.71398941 140.71398941 140.71398941 140.71398941 140.71398941 140.71398941 140.71398941 140.71398941 140.71398941 140.71398941 140.71398941 140.71398941 140.71398941 140.71398941 140.71398941 140.71398941 140.71398941 140.71398941 140.71398941 140.71398941 140.71398941 140.71398941 140.71398941 140.71398941 140.71398941 140.71398941 140.71398941 140.71398941 140.71398941 140.71398941 140.71398941 140.71398941 140.71398941 140.71398941 140.71398941 140.71398941 140.71398941 140.71398941 140.71398941 140.71398941 140.71398941 140.71398941 140.71398941 140.71398941 140.71398941 140.71398941 140.71398941 140.71398941 140.71398941 140.71398941 140.71398941 140.71398941 140.71398941 140.71398941 140.71398941 140.71398941 140.71398941 140.71398941 140.71398941 140.71398941 140.71398941 140.71398941 140.71398941 140.71398941 140.71398941 140.71398941 140.71398941 140.71398941 140.71398941 140.71398941 140.71398941 140.71398941 140.71398941 140.71398941 140.71398941 140.71398941 140.71398941 140.71398941 140.71398941 140.71398941 140.71398941 140.71398941 140.71398941 140.71398941 140.71398941 140.71398941 140.71398941 140.71398941 140.71398941 140.71398941 140.71398941 140.71398941 140.71398941 140.71398941 140.71398941 140.71398941 140.71398941 140.71398941 140.71398941 140.71398941 140.71398941 140.71398941 140.71398941 140.71398941 140.71398941 140.71398941 140.71398941 140.71398941 