# vtk DataFile Version 3.0
VTK - Matlab export
ASCII
DATASET STRUCTURED_POINTS
DIMENSIONS 40 40 1
SPACING 1 1 1
ORIGIN 0 0 0
POINT_DATA 1600
SCALARS Proofstrength float 1
LOOKUP_TABLE default
140.71398941 140.71398941 140.71398941 140.71398941 140.71398941 140.71398941 140.71398941 140.71398941 140.71398941 140.71398941 140.71398941 140.71398941 140.71398941 140.71398941 140.71398941 140.71398941 140.71398941 140.71398941 140.71398941 140.71398941 140.71398941 140.71398941 140.71398941 140.71398941 140.71398941 140.71398941 140.71398941 140.71398941 140.71398941 140.71398941 140.71398941 140.71398941 140.71398941 140.71398941 140.71398941 140.71398941 140.71398941 140.71398941 140.71398941 140.71398941 140.71398941 140.71398941 140.71398941 140.71398941 140.71398941 140.71398941 140.71398941 140.71398941 140.71398941 140.71398941 140.71398941 140.71398941 140.71398941 140.71398941 140.71398941 140.71398941 140.71398941 140.71398941 140.71398941 140.71398941 140.71398941 140.71398941 140.71398941 140.71398941 140.71398941 140.71398941 140.71398941 140.71398941 140.71398941 140.71398941 140.71398941 140.71398941 140.71398941 140.71398941 140.71398941 140.71398941 140.71398941 140.71398941 140.71398941 140.71398941 140.71398941 140.71398941 140.71398941 140.71398941 140.71398941 140.71398941 140.71398941 140.71398941 140.71398941 140.71398941 140.71398941 140.71398941 140.71398941 140.71398941 140.71398941 140.71398941 140.71398941 140.71398941 140.71398941 140.71398941 140.71398941 140.71398941 140.71398941 140.71398941 140.71398941 140.71398941 140.71398941 140.71398941 140.71398941 140.71398941 140.71398941 140.71398941 140.71398941 140.71398941 140.71398941 140.71398941 140.71398941 140.71398941 140.71398941 140.71398941 140.71398941 140.71398941 140.71398941 140.71398941 140.71398941 140.71398941 140.71398941 140.71398941 140.71398941 140.71398941 140.71398941 140.71398941 140.71398941 140.71398941 140.71398941 140.71398941 140.71398941 140.71398941 140.71398941 140.71398941 140.71398941 140.71398941 140.71398941 140.71398941 140.71398941 140.71398941 140.71398941 140.71398941 140.71398941 140.71398941 140.71398941 140.71398941 140.71398941 140.71398941 140.71398941 140.71398941 140.71398941 140.71398941 140.71398941 140.71398941 140.71398941 140.71398941 140.71398941 140.71398941 140.71398941 140.71398941 140.71398941 140.71398941 140.71398941 140.71398941 140.71398941 140.71398941 140.71398941 140.71398941 140.71398941 140.71398941 140.71398941 140.71398941 140.71398941 140.71398941 140.71398941 140.71398941 140.71398941 140.71398941 140.71398941 140.71398941 140.71398941 140.71398941 140.71398941 140.71398941 140.71398941 140.71398941 140.71398941 140.71398941 140.71398941 140.71398941 140.71398941 140.71398941 140.71398941 140.71398941 140.71398941 140.71398941 140.71398941 140.71398941 140.71398941 140.71398941 140.71398941 140.71398941 140.71398941 140.71398941 140.71398941 140.71398941 140.71398941 140.71398941 140.71398941 140.71398941 140.71398941 140.71398941 140.71398941 140.71398941 140.71398941 140.71398941 140.71398941 140.71398941 140.71398941 140.71398941 140.71398941 140.71398941 140.71398941 140.71398941 140.71398941 140.71398941 140.71398941 140.71398941 140.71398941 140.71398941 140.71398941 140.71398941 140.71398941 140.71398941 140.71398941 140.71398941 140.71398941 140.71398941 140.71398941 140.71398941 140.71398941 140.71398941 140.71398941 140.71398941 140.71398941 140.71398941 140.71398941 140.71398941 140.71398941 140.71398941 140.71398941 140.71398941 140.71398941 140.71398941 140.71398941 140.71398941 140.71398941 140.71398941 140.71398941 140.71398941 140.71398941 140.71398941 140.71398941 140.71398941 140.71398941 140.71398941 140.71398941 140.71398941 140.71398941 140.71398941 140.71398941 140.71398941 140.71398941 140.71398941 140.71398941 140.71398941 140.71398941 140.71398941 140.71398941 140.71398941 140.71398941 140.71398941 140.71398941 140.71398941 140.71398941 140.71398941 140.71398941 140.71398941 140.71398941 140.71398941 140.71398941 140.71398941 140.71398941 140.71398941 140.71398941 140.71398941 140.71398941 140.71398941 140.71398941 140.71398941 140.71398941 140.71398941 140.71398941 140.71398941 140.71398941 140.71398941 140.71398941 140.71398941 140.71398941 140.71398941 140.71398941 140.71398941 140.71398941 140.71398941 140.71398941 140.71398941 140.71398941 140.71398941 140.71398941 140.71398941 140.71398941 140.71398941 140.71398941 140.71398941 140.71398941 140.71398941 140.71398941 140.71398941 140.71398941 140.71398941 140.71398941 140.71661897 140.71804060 140.71856173 140.71856173 140.71804060 140.71661897 140.71398941 140.71398941 140.71398941 140.71398941 140.71398941 140.71398941 140.71398941 140.71398941 140.71398941 140.71398941 140.71398941 140.71398941 140.71398941 140.71398941 140.71398941 140.71398941 140.71398941 140.71398941 140.71398941 140.71398941 140.71398941 140.71398941 140.71398941 140.71398941 140.71398941 140.71398941 140.71398941 140.71398941 140.71398941 140.71676778 140.71884285 140.72009033 140.72091211 140.72165398 140.72288563 140.72388741 140.72437027 140.72437027 140.72388741 140.72288563 140.72165398 140.72091211 140.72009033 140.71884285 140.71676778 140.71398941 140.71398941 140.71398941 140.71398941 140.71398941 140.71398941 140.71398941 140.71398941 140.71398941 140.71398941 140.71398941 140.71398941 140.71398941 140.71398941 140.71398941 140.71398941 140.71398941 140.71398941 140.71398941 140.71398941 140.71398941 140.71398941 140.71812644 140.72046057 140.72280580 140.72492825 140.72652212 140.72768428 140.72861412 140.72949485 140.73018809 140.73054992 140.73054992 140.73018809 140.72949485 140.72861412 140.72768428 140.72652212 140.72492825 140.72280580 140.72046057 140.71812644 140.71398941 140.71398941 140.71398941 140.71398941 140.71398941 140.71398941 140.71398941 140.71398941 140.71398941 140.71398941 140.71398941 140.71398941 140.71398941 140.71398941 140.71398941 140.71398941 140.71398941 140.71398941 140.71785462 140.72068512 140.72404579 140.72682012 140.72919558 140.73119768 140.73274794 140.73389551 140.73475658 140.73542952 140.73591084 140.73616009 140.73616009 140.73591084 140.73542952 140.73475658 140.73389551 140.73274794 140.73119768 140.72919558 140.72682012 140.72404579 140.72068512 140.71785462 140.71398941 140.71398941 140.71398941 140.71398941 140.71398941 140.71398941 140.71398941 140.71398941 140.71398941 140.71398941 140.71398941 140.71398941 140.71398941 140.71398941 140.71398941 140.71889643 140.72314728 140.72681129 140.73015386 140.73293527 140.73516500 140.73689480 140.73816409 140.73905250 140.73966402 140.74008650 140.74036136 140.74049794 140.74049794 140.74036136 140.74008650 140.73966402 140.73905250 140.73816409 140.73689480 140.73516500 140.73293527 140.73015386 140.72681129 140.72314728 140.71889643 140.71398941 140.71398941 140.71398941 140.71398941 140.71398941 140.71398941 140.71398941 140.71398941 140.71398941 140.71398941 140.71398941 140.71398941 140.71637258 140.71986795 140.72444807 140.72882778 140.73266683 140.73588602 140.73840565 140.74025467 140.74152385 140.74232370 140.74277790 140.74300810 140.74311314 140.74315660 140.74317150 140.74317150 140.74315660 140.74311314 140.74300810 140.74277790 140.74232370 140.74152385 140.74025467 140.73840565 140.73588602 140.73266683 140.72882778 140.72444807 140.71986795 140.71637258 140.71398941 140.71398941 140.71398941 140.71398941 140.71398941 140.71398941 140.71398941 140.71398941 140.71398941 140.71398941 140.71977299 140.72485403 140.72978525 140.73424206 140.73797356 140.74086695 140.74290740 140.74417862 140.74482734 140.74502327 140.74493360 140.74470466 140.74444949 140.74424394 140.74413154 140.74413154 140.74424394 140.74444949 140.74470466 140.74493360 140.74502327 140.74482734 140.74417862 140.74290740 140.74086695 140.73797356 140.73424206 140.72978525 140.72485403 140.71977299 140.71398941 140.71398941 140.71398941 140.71398941 140.71398941 140.71398941 140.71398941 140.71398941 140.71398941 140.71856955 140.72405343 140.72952826 140.73463158 140.73902085 140.74246296 140.74486942 140.74628441 140.74685717 140.74679722 140.74632870 140.74565723 140.74495080 140.74433251 140.74388290 140.74364795 140.74364795 140.74388290 140.74433251 140.74495080 140.74565723 140.74632870 140.74679722 140.74685717 140.74628441 140.74486942 140.74246296 140.73902085 140.73463158 140.72952826 140.72405343 140.71856955 140.71398941 140.71398941 140.71398941 140.71398941 140.71398941 140.71398941 140.71398941 140.71724067 140.72219190 140.72789519 140.73358479 140.73872748 140.74293630 140.74598675 140.74782859 140.74856674 140.74841737 140.74765098 140.74653949 140.74531924 140.74417304 140.74322791 140.74256290 140.74222119 140.74222119 140.74256290 140.74322791 140.74417304 140.74531924 140.74653949 140.74765098 140.74841737 140.74856674 140.74782859 140.74598675 140.74293630 140.73872748 140.73358479 140.72789519 140.72219190 140.71724067 140.71398941 140.71398941 140.71398941 140.71398941 140.71398941 140.71398941 140.71908166 140.72482973 140.73091303 140.73677371 140.74189073 140.74587512 140.74852124 140.74982037 140.74993431 140.74913913 140.74775747 140.74609913 140.74442229 140.74291774 140.74171130 140.74087681 140.74045200 140.74045200 140.74087681 140.74171130 140.74291774 140.74442229 140.74609913 140.74775747 140.74913913 140.74993431 140.74982037 140.74852124 140.74587512 140.74189073 140.73677371 140.73091303 140.72482973 140.71908166 140.71398941 140.71398941 140.71398941 140.71398941 140.71398941 140.71398941 140.72026337 140.72659888 140.73298145 140.73895625 140.74402620 140.74781231 140.75012930 140.75100344 140.75064102 140.74936313 140.74753020 140.74547793 140.74347785 140.74172379 140.74033823 140.73938904 140.73890847 140.73890847 140.73938904 140.74033823 140.74172379 140.74347785 140.74547793 140.74753020 140.74936313 140.75064102 140.75100344 140.75012930 140.74781231 140.74402620 140.73895625 140.73298145 140.72659888 140.72026337 140.71398941 140.71398941 140.71398941 140.71398941 140.71398941 140.71585215 140.72122162 140.72756436 140.73404584 140.74006448 140.74509850 140.74876902 140.75090200 140.75154339 140.75092382 140.74938857 140.74731779 140.74506026 140.74289364 140.74101245 140.73953657 140.73853004 140.73802177 140.73802177 140.73853004 140.73953657 140.74101245 140.74289364 140.74506026 140.74731779 140.74938857 140.75092382 140.75154339 140.75090200 140.74876902 140.74509850 140.74006448 140.73404584 140.72756436 140.72122162 140.71585215 140.71398941 140.71398941 140.71398941 140.71398941 140.71585215 140.72122162 140.72756436 140.73404584 140.74006448 140.74509850 140.74876902 140.75090200 140.75154339 140.75092382 140.74938857 140.74731779 140.74506026 140.74289364 140.74101245 140.73953657 140.73853004 140.73802177 140.73802177 140.73853004 140.73953657 140.74101245 140.74289364 140.74506026 140.74731779 140.74938857 140.75092382 140.75154339 140.75090200 140.74876902 140.74509850 140.74006448 140.73404584 140.72756436 140.72122162 140.71585215 140.71398941 140.71398941 140.71398941 140.71398941 140.71398941 140.72026337 140.72659888 140.73298145 140.73895625 140.74402620 140.74781231 140.75012930 140.75100344 140.75064102 140.74936313 140.74753020 140.74547793 140.74347785 140.74172379 140.74033823 140.73938904 140.73890847 140.73890847 140.73938904 140.74033823 140.74172379 140.74347785 140.74547793 140.74753020 140.74936313 140.75064102 140.75100344 140.75012930 140.74781231 140.74402620 140.73895625 140.73298145 140.72659888 140.72026337 140.71398941 140.71398941 140.71398941 140.71398941 140.71398941 140.71398941 140.71908166 140.72482973 140.73091303 140.73677371 140.74189073 140.74587512 140.74852124 140.74982037 140.74993431 140.74913913 140.74775747 140.74609913 140.74442229 140.74291774 140.74171130 140.74087681 140.74045200 140.74045200 140.74087681 140.74171130 140.74291774 140.74442229 140.74609913 140.74775747 140.74913913 140.74993431 140.74982037 140.74852124 140.74587512 140.74189073 140.73677371 140.73091303 140.72482973 140.71908166 140.71398941 140.71398941 140.71398941 140.71398941 140.71398941 140.71398941 140.71724067 140.72219190 140.72789519 140.73358479 140.73872748 140.74293630 140.74598675 140.74782859 140.74856674 140.74841737 140.74765098 140.74653949 140.74531924 140.74417304 140.74322791 140.74256290 140.74222119 140.74222119 140.74256290 140.74322791 140.74417304 140.74531924 140.74653949 140.74765098 140.74841737 140.74856674 140.74782859 140.74598675 140.74293630 140.73872748 140.73358479 140.72789519 140.72219190 140.71724067 140.71398941 140.71398941 140.71398941 140.71398941 140.71398941 140.71398941 140.71398941 140.71856955 140.72405343 140.72952826 140.73463158 140.73902085 140.74246296 140.74486942 140.74628441 140.74685717 140.74679722 140.74632870 140.74565723 140.74495080 140.74433251 140.74388290 140.74364795 140.74364795 140.74388290 140.74433251 140.74495080 140.74565723 140.74632870 140.74679722 140.74685717 140.74628441 140.74486942 140.74246296 140.73902085 140.73463158 140.72952826 140.72405343 140.71856955 140.71398941 140.71398941 140.71398941 140.71398941 140.71398941 140.71398941 140.71398941 140.71398941 140.71398941 140.71977299 140.72485403 140.72978525 140.73424206 140.73797356 140.74086695 140.74290740 140.74417862 140.74482734 140.74502327 140.74493360 140.74470466 140.74444949 140.74424394 140.74413154 140.74413154 140.74424394 140.74444949 140.74470466 140.74493360 140.74502327 140.74482734 140.74417862 140.74290740 140.74086695 140.73797356 140.73424206 140.72978525 140.72485403 140.71977299 140.71398941 140.71398941 140.71398941 140.71398941 140.71398941 140.71398941 140.71398941 140.71398941 140.71398941 140.71398941 140.71637258 140.71986795 140.72444807 140.72882778 140.73266683 140.73588602 140.73840565 140.74025467 140.74152385 140.74232370 140.74277790 140.74300810 140.74311314 140.74315660 140.74317150 140.74317150 140.74315660 140.74311314 140.74300810 140.74277790 140.74232370 140.74152385 140.74025467 140.73840565 140.73588602 140.73266683 140.72882778 140.72444807 140.71986795 140.71637258 140.71398941 140.71398941 140.71398941 140.71398941 140.71398941 140.71398941 140.71398941 140.71398941 140.71398941 140.71398941 140.71398941 140.71398941 140.71889643 140.72314728 140.72681129 140.73015386 140.73293527 140.73516500 140.73689480 140.73816409 140.73905250 140.73966402 140.74008650 140.74036136 140.74049794 140.74049794 140.74036136 140.74008650 140.73966402 140.73905250 140.73816409 140.73689480 140.73516500 140.73293527 140.73015386 140.72681129 140.72314728 140.71889643 140.71398941 140.71398941 140.71398941 140.71398941 140.71398941 140.71398941 140.71398941 140.71398941 140.71398941 140.71398941 140.71398941 140.71398941 140.71398941 140.71398941 140.71398941 140.71785462 140.72068512 140.72404579 140.72682012 140.72919558 140.73119768 140.73274794 140.73389551 140.73475658 140.73542952 140.73591084 140.73616009 140.73616009 140.73591084 140.73542952 140.73475658 140.73389551 140.73274794 140.73119768 140.72919558 140.72682012 140.72404579 140.72068512 140.71785462 140.71398941 140.71398941 140.71398941 140.71398941 140.71398941 140.71398941 140.71398941 140.71398941 140.71398941 140.71398941 140.71398941 140.71398941 140.71398941 140.71398941 140.71398941 140.71398941 140.71398941 140.71398941 140.71812644 140.72046057 140.72280580 140.72492825 140.72652212 140.72768428 140.72861412 140.72949485 140.73018809 140.73054992 140.73054992 140.73018809 140.72949485 140.72861412 140.72768428 140.72652212 140.72492825 140.72280580 140.72046057 140.71812644 140.71398941 140.71398941 140.71398941 140.71398941 140.71398941 140.71398941 140.71398941 140.71398941 140.71398941 140.71398941 140.71398941 140.71398941 140.71398941 140.71398941 140.71398941 140.71398941 140.71398941 140.71398941 140.71398941 140.71398941 140.71398941 140.71398941 140.71676778 140.71884285 140.72009033 140.72091211 140.72165398 140.72288563 140.72388741 140.72437027 140.72437027 140.72388741 140.72288563 140.72165398 140.72091211 140.72009033 140.71884285 140.71676778 140.71398941 140.71398941 140.71398941 140.71398941 140.71398941 140.71398941 140.71398941 140.71398941 140.71398941 140.71398941 140.71398941 140.71398941 140.71398941 140.71398941 140.71398941 140.71398941 140.71398941 140.71398941 140.71398941 140.71398941 140.71398941 140.71398941 140.71398941 140.71398941 140.71398941 140.71398941 140.71398941 140.71398941 140.71398941 140.71661897 140.71804060 140.71856173 140.71856173 140.71804060 140.71661897 140.71398941 140.71398941 140.71398941 140.71398941 140.71398941 140.71398941 140.71398941 140.71398941 140.71398941 140.71398941 140.71398941 140.71398941 140.71398941 140.71398941 140.71398941 140.71398941 140.71398941 140.71398941 140.71398941 140.71398941 140.71398941 140.71398941 140.71398941 140.71398941 140.71398941 140.71398941 140.71398941 140.71398941 140.71398941 140.71398941 140.71398941 140.71398941 140.71398941 140.71398941 140.71398941 140.71398941 140.71398941 140.71398941 140.71398941 140.71398941 140.71398941 140.71398941 140.71398941 140.71398941 140.71398941 140.71398941 140.71398941 140.71398941 140.71398941 140.71398941 140.71398941 140.71398941 140.71398941 140.71398941 140.71398941 140.71398941 140.71398941 140.71398941 140.71398941 140.71398941 140.71398941 140.71398941 140.71398941 140.71398941 140.71398941 140.71398941 140.71398941 140.71398941 140.71398941 140.71398941 140.71398941 140.71398941 140.71398941 140.71398941 140.71398941 140.71398941 140.71398941 140.71398941 140.71398941 140.71398941 140.71398941 140.71398941 140.71398941 140.71398941 140.71398941 140.71398941 140.71398941 140.71398941 140.71398941 140.71398941 140.71398941 140.71398941 140.71398941 140.71398941 140.71398941 140.71398941 140.71398941 140.71398941 140.71398941 140.71398941 140.71398941 140.71398941 140.71398941 140.71398941 140.71398941 140.71398941 140.71398941 140.71398941 140.71398941 140.71398941 140.71398941 140.71398941 140.71398941 140.71398941 140.71398941 140.71398941 140.71398941 140.71398941 140.71398941 140.71398941 140.71398941 140.71398941 140.71398941 140.71398941 140.71398941 140.71398941 140.71398941 140.71398941 140.71398941 140.71398941 140.71398941 140.71398941 140.71398941 140.71398941 140.71398941 140.71398941 140.71398941 140.71398941 140.71398941 140.71398941 140.71398941 140.71398941 140.71398941 140.71398941 140.71398941 140.71398941 140.71398941 140.71398941 140.71398941 140.71398941 140.71398941 140.71398941 140.71398941 140.71398941 140.71398941 140.71398941 140.71398941 140.71398941 140.71398941 140.71398941 140.71398941 140.71398941 140.71398941 140.71398941 140.71398941 140.71398941 140.71398941 140.71398941 140.71398941 140.71398941 140.71398941 140.71398941 140.71398941 140.71398941 140.71398941 140.71398941 140.71398941 140.71398941 140.71398941 140.71398941 140.71398941 140.71398941 140.71398941 140.71398941 140.71398941 140.71398941 140.71398941 140.71398941 140.71398941 140.71398941 140.71398941 140.71398941 140.71398941 140.71398941 140.71398941 140.71398941 140.71398941 140.71398941 140.71398941 140.71398941 140.71398941 140.71398941 140.71398941 140.71398941 140.71398941 140.71398941 140.71398941 140.71398941 140.71398941 140.71398941 140.71398941 140.71398941 140.71398941 140.71398941 140.71398941 140.71398941 140.71398941 140.71398941 140.71398941 140.71398941 140.71398941 140.71398941 140.71398941 140.71398941 140.71398941 140.71398941 140.71398941 140.71398941 140.71398941 140.71398941 140.71398941 140.71398941 140.71398941 140.71398941 140.71398941 140.71398941 140.71398941 140.71398941 140.71398941 140.71398941 140.71398941 140.71398941 140.71398941 140.71398941 140.71398941 140.71398941 140.71398941 140.71398941 140.71398941 140.71398941 140.71398941 140.71398941 140.71398941 140.71398941 140.71398941 140.71398941 140.71398941 140.71398941 140.71398941 140.71398941 140.71398941 140.71398941 140.71398941 140.71398941 140.71398941 140.71398941 140.71398941 140.71398941 140.71398941 140.71398941 140.71398941 140.71398941 140.71398941 140.71398941 140.71398941 140.71398941 140.71398941 140.71398941 140.71398941 140.71398941 140.71398941 140.71398941 140.71398941 140.71398941 140.71398941 140.71398941 140.71398941 140.71398941 140.71398941 140.71398941 140.71398941 140.71398941 140.71398941 140.71398941 140.71398941 140.71398941 140.71398941 140.71398941 140.71398941 140.71398941 140.71398941 140.71398941 140.71398941 140.71398941 140.71398941 140.71398941 140.71398941 140.71398941 140.71398941 140.71398941 140.71398941 140.71398941 140.71398941 140.71398941 140.71398941 140.71398941 140.71398941 140.71398941 140.71398941 140.71398941 140.71398941 140.71398941 140.71398941 140.71398941 140.71398941 140.71398941 140.71398941 140.71398941 140.71398941 140.71398941 140.71398941 140.71398941 140.71398941 140.71398941 140.71398941 140.71398941 140.71398941 