# vtk DataFile Version 3.0
VTK - Matlab export
ASCII
DATASET STRUCTURED_POINTS
DIMENSIONS 40 40 1
SPACING 1 1 1
ORIGIN 0 0 0
POINT_DATA 1600
SCALARS Temperature float 1
LOOKUP_TABLE default
200.00000000 200.00000000 200.00000000 200.00000000 200.00000000 200.00000000 200.00000000 200.00000000 200.00000000 200.00000000 200.00000000 200.00000000 200.00000000 200.00000000 200.00000000 200.00000000 200.00000000 200.00000000 200.00000000 200.00000000 200.00000000 200.00000000 200.00000000 200.00000000 200.00000000 200.00000000 200.00000000 200.00000000 200.00000000 200.00000000 200.00000000 200.00000000 200.00000000 200.00000000 200.00000000 200.00000000 200.00000000 200.00000000 200.00000000 200.00000000 200.00000000 200.00000000 200.00000000 200.00000000 200.00000000 200.00000000 200.00000000 200.00000000 200.00000000 200.00000000 200.00000000 200.00000000 200.00000000 200.00000000 200.00000000 200.00000000 200.00000000 200.00000000 200.00000000 200.00000000 200.00000000 200.00000000 200.00000000 200.00000000 200.00000000 200.00000000 200.00000000 200.00000000 200.00000000 200.00000000 200.00000000 200.00000000 200.00000000 200.00000000 200.00000000 200.00000000 200.00000000 200.00000000 200.00000000 200.00000000 200.00000000 200.00000000 200.00000000 200.00000000 200.00000000 200.00000000 200.00000000 200.00000000 200.00000000 200.00000000 200.00000000 200.00000000 200.00000000 200.00000000 200.00000000 200.00000000 200.00000000 200.00000000 200.00000000 200.00000000 200.00000000 200.00000000 200.00000000 200.00000000 200.00000000 200.00000000 200.00000000 200.00000000 200.00000000 200.00000000 200.00000000 200.00000000 200.00000000 200.00000000 200.00000000 200.00000000 200.00000000 200.00000000 200.00000000 200.00000000 200.00000000 200.00000000 200.00000000 200.00000000 200.00000000 200.00000000 200.00000000 200.00000000 200.00000000 200.00000000 200.00000000 200.00000000 200.00000000 200.00000000 200.00000000 200.00000000 200.00000000 200.00000000 200.00000000 200.00000000 200.00000000 200.00000000 200.00000000 200.00000000 200.00000000 200.00000000 200.00000000 200.00000000 200.00000000 200.00000000 200.00000000 200.00000000 200.00000000 200.00000000 200.00000000 200.00000000 200.00000000 200.00000000 200.00000000 200.00000000 200.00000000 200.00000000 200.00000000 200.00000000 200.00000000 200.00000000 200.00000000 200.00000000 200.00000000 200.00000000 200.00000000 200.00000000 200.00000000 200.00000000 200.00000000 200.00000000 200.00000000 200.00000000 200.00000000 200.00000000 200.00000000 200.00000000 200.00000000 200.00000000 200.00000000 200.00000000 200.00000000 200.00000000 200.00000000 200.00000000 200.00000000 200.00000000 200.00000000 200.00000000 200.00000000 200.00000000 200.00000000 200.00000000 200.00000000 200.00000000 200.00000000 200.00000000 200.00000000 200.00000000 200.00000000 200.00000000 200.00000000 200.00000000 200.00000000 200.00000000 200.00000000 200.00000000 200.00000000 200.00000000 200.00000000 200.00000000 200.00000000 200.00000000 200.00000000 200.00000000 200.00000000 200.00000000 200.00000000 200.00000000 200.00000000 200.00000000 200.00000000 200.00000000 200.00000000 200.00000000 200.00000000 200.00000000 200.00000000 200.00000000 200.00000000 200.00000000 200.00000000 200.00000000 200.00000000 200.00000000 200.00000000 200.00000000 200.00000000 200.00000000 200.00000000 200.00000000 200.00000000 200.00000000 200.00000000 200.00000000 200.00000000 200.00000000 200.00000000 200.00000000 200.00000000 200.00000000 200.00000000 200.00000000 200.00000000 200.00000000 200.00000000 200.00000000 200.00000000 200.00000000 200.00000000 200.00000000 200.00000000 200.00000000 200.00000000 200.00000000 200.00000000 200.00000000 200.00000000 200.00000000 200.00000000 200.00000000 200.00000000 200.00000000 200.00000000 200.00000000 200.00000000 200.00000000 200.00000000 200.00000000 200.00000000 200.00000000 200.00000000 200.00000000 200.00000000 200.00000000 200.00000000 200.00000000 200.00000000 200.00000000 200.00000000 200.00000000 200.00000000 200.00000000 200.00000000 200.00000000 200.00000000 200.00000000 200.00000000 200.00000000 200.00000000 200.00000000 200.00000000 200.00000000 200.00000000 200.00000000 200.00000000 200.00000000 200.00000000 200.00000000 200.00000000 200.00000000 200.00000000 200.00000000 200.00000000 200.00000000 200.00000000 200.00000000 200.00000000 200.00000000 200.00000000 200.00000000 200.00000000 200.00000000 200.00000000 200.00000000 200.00000000 200.00000000 200.00000000 200.00000000 200.00000000 200.00000000 200.00000000 226.57918609 240.90802025 246.16158743 246.16158743 240.90802025 226.57918609 200.00000000 200.00000000 200.00000000 200.00000000 200.00000000 200.00000000 200.00000000 200.00000000 200.00000000 200.00000000 200.00000000 200.00000000 200.00000000 200.00000000 200.00000000 200.00000000 200.00000000 200.00000000 200.00000000 200.00000000 200.00000000 200.00000000 200.00000000 200.00000000 200.00000000 200.00000000 200.00000000 200.00000000 200.00000000 226.90887002 247.48283283 260.37924698 269.32804710 277.52770192 290.48310968 300.92323731 305.96500950 305.96500950 300.92323731 290.48310968 277.52770192 269.32804710 260.37924698 247.48283283 226.90887002 200.00000000 200.00000000 200.00000000 200.00000000 200.00000000 200.00000000 200.00000000 200.00000000 200.00000000 200.00000000 200.00000000 200.00000000 200.00000000 200.00000000 200.00000000 200.00000000 200.00000000 200.00000000 200.00000000 200.00000000 200.00000000 200.00000000 238.84110375 261.65309949 285.38314580 307.61486309 325.19862991 338.79550404 350.03801859 360.45502887 368.50901703 372.70232279 372.70232279 368.50901703 360.45502887 350.03801859 338.79550404 325.19862991 307.61486309 285.38314580 261.65309949 238.84110375 200.00000000 200.00000000 200.00000000 200.00000000 200.00000000 200.00000000 200.00000000 200.00000000 200.00000000 200.00000000 200.00000000 200.00000000 200.00000000 200.00000000 200.00000000 200.00000000 200.00000000 200.00000000 234.95073845 261.57221640 294.25663062 322.73582929 348.59362666 371.73210654 391.00766559 406.46201155 418.78978009 428.58241722 435.55017713 439.15090424 439.15090424 435.55017713 428.58241722 418.78978009 406.46201155 391.00766559 371.73210654 348.59362666 322.73582929 294.25663062 261.57221640 234.95073845 200.00000000 200.00000000 200.00000000 200.00000000 200.00000000 200.00000000 200.00000000 200.00000000 200.00000000 200.00000000 200.00000000 200.00000000 200.00000000 200.00000000 200.00000000 243.40293417 282.40472453 317.87246572 352.25843526 383.21941182 410.48173680 433.99026755 453.50290235 469.15986356 481.39276638 490.58698401 496.81442974 499.96602700 499.96602700 496.81442974 490.58698401 481.39276638 469.15986356 453.50290235 433.99026755 410.48173680 383.21941182 352.25843526 317.87246572 282.40472453 243.40293417 200.00000000 200.00000000 200.00000000 200.00000000 200.00000000 200.00000000 200.00000000 200.00000000 200.00000000 200.00000000 200.00000000 200.00000000 220.22829232 250.64226143 291.85146372 333.32088156 372.40053611 408.38430186 440.22471429 467.58563611 490.51818762 509.19991172 523.98047414 535.31143533 543.58865464 549.04054268 551.75389485 551.75389485 549.04054268 543.58865464 535.31143533 523.98047414 509.19991172 490.51818762 467.58563611 440.22471429 408.38430186 372.40053611 333.32088156 291.85146372 250.64226143 220.22829232 200.00000000 200.00000000 200.00000000 200.00000000 200.00000000 200.00000000 200.00000000 200.00000000 200.00000000 200.00000000 248.73886511 293.03992630 338.31118537 382.30773948 423.10652978 459.57292270 491.02729318 517.35042862 538.81473103 555.88337170 569.10877233 579.04267169 586.14564230 590.73460002 592.98972746 592.98972746 590.73460002 586.14564230 579.04267169 569.10877233 555.88337170 538.81473103 517.35042862 491.02729318 459.57292270 423.10652978 382.30773948 338.31118537 293.03992630 248.73886511 200.00000000 200.00000000 200.00000000 200.00000000 200.00000000 200.00000000 200.00000000 200.00000000 200.00000000 237.74959539 284.13874563 332.49229495 380.64601495 426.29513522 467.63051160 503.57629636 533.72716530 558.24665242 577.66992057 592.69903380 604.05853796 612.40028705 618.24449288 621.95758890 623.76252160 623.76252160 621.95758890 618.24449288 612.40028705 604.05853796 592.69903380 577.66992057 558.24665242 533.72716530 503.57629636 467.63051160 426.29513522 380.64601495 332.49229495 284.13874563 237.74959539 200.00000000 200.00000000 200.00000000 200.00000000 200.00000000 200.00000000 200.00000000 226.32786908 267.12790032 315.65181297 366.67127138 416.72016816 463.17650223 504.25272485 539.03871615 567.40415181 589.80126784 607.01827508 619.95551413 629.46961381 636.28563870 640.96048237 643.88169344 645.28672603 645.28672603 643.88169344 640.96048237 636.28563870 629.46961381 619.95551413 607.01827508 589.80126784 567.40415181 539.03871615 504.25272485 463.17650223 416.72016816 366.67127138 315.65181297 267.12790032 226.32786908 200.00000000 200.00000000 200.00000000 200.00000000 200.00000000 200.00000000 241.06802102 288.33798710 340.31215500 393.58897511 444.88412923 491.58455079 532.00127807 565.42237178 591.97472326 612.36504923 627.59184447 638.70549779 646.65292206 652.20244489 655.92584342 658.21331236 659.30176643 659.30176643 658.21331236 655.92584342 652.20244489 646.65292206 638.70549779 627.59184447 612.36504923 591.97472326 565.42237178 532.00127807 491.58455079 444.88412923 393.58897511 340.31215500 288.33798710 241.06802102 200.00000000 200.00000000 200.00000000 200.00000000 200.00000000 200.00000000 250.45832276 302.49395145 357.19016580 412.07042705 464.10372913 510.77128926 550.50232170 582.75756538 607.86438701 626.71756712 640.46343070 650.25072553 657.07977002 661.73948603 664.80349982 666.65652225 667.52948578 667.52948578 666.65652225 664.80349982 661.73948603 657.07977002 650.25072553 640.46343070 626.71756712 607.86438701 582.75756538 550.50232170 510.77128926 464.10372913 412.07042705 357.19016580 302.49395145 250.45832276 200.00000000 200.00000000 200.00000000 200.00000000 200.00000000 214.87065887 258.04398727 310.19109478 365.86744767 421.47842835 473.83091731 520.41475301 559.72349362 591.31530247 615.62681139 633.65223111 646.61353631 655.70752420 661.95857302 666.16288604 668.89220477 670.52613358 671.29087800 671.29087800 670.52613358 668.89220477 666.16288604 661.95857302 655.70752420 646.61353631 633.65223111 615.62681139 591.31530247 559.72349362 520.41475301 473.83091731 421.47842835 365.86744767 310.19109478 258.04398727 214.87065887 200.00000000 200.00000000 200.00000000 200.00000000 214.87065887 258.04398727 310.19109478 365.86744767 421.47842835 473.83091731 520.41475301 559.72349362 591.31530247 615.62681139 633.65223111 646.61353631 655.70752420 661.95857302 666.16288604 668.89220477 670.52613358 671.29087800 671.29087800 670.52613358 668.89220477 666.16288604 661.95857302 655.70752420 646.61353631 633.65223111 615.62681139 591.31530247 559.72349362 520.41475301 473.83091731 421.47842835 365.86744767 310.19109478 258.04398727 214.87065887 200.00000000 200.00000000 200.00000000 200.00000000 200.00000000 250.45832276 302.49395145 357.19016580 412.07042705 464.10372913 510.77128926 550.50232170 582.75756538 607.86438701 626.71756712 640.46343070 650.25072553 657.07977002 661.73948603 664.80349982 666.65652225 667.52948578 667.52948578 666.65652225 664.80349982 661.73948603 657.07977002 650.25072553 640.46343070 626.71756712 607.86438701 582.75756538 550.50232170 510.77128926 464.10372913 412.07042705 357.19016580 302.49395145 250.45832276 200.00000000 200.00000000 200.00000000 200.00000000 200.00000000 200.00000000 241.06802102 288.33798710 340.31215500 393.58897511 444.88412923 491.58455079 532.00127807 565.42237178 591.97472326 612.36504923 627.59184447 638.70549779 646.65292206 652.20244489 655.92584342 658.21331236 659.30176643 659.30176643 658.21331236 655.92584342 652.20244489 646.65292206 638.70549779 627.59184447 612.36504923 591.97472326 565.42237178 532.00127807 491.58455079 444.88412923 393.58897511 340.31215500 288.33798710 241.06802102 200.00000000 200.00000000 200.00000000 200.00000000 200.00000000 200.00000000 226.32786908 267.12790032 315.65181297 366.67127138 416.72016816 463.17650223 504.25272485 539.03871615 567.40415181 589.80126784 607.01827508 619.95551413 629.46961381 636.28563870 640.96048237 643.88169344 645.28672603 645.28672603 643.88169344 640.96048237 636.28563870 629.46961381 619.95551413 607.01827508 589.80126784 567.40415181 539.03871615 504.25272485 463.17650223 416.72016816 366.67127138 315.65181297 267.12790032 226.32786908 200.00000000 200.00000000 200.00000000 200.00000000 200.00000000 200.00000000 200.00000000 237.74959539 284.13874563 332.49229495 380.64601495 426.29513522 467.63051160 503.57629636 533.72716530 558.24665242 577.66992057 592.69903380 604.05853796 612.40028705 618.24449288 621.95758890 623.76252160 623.76252160 621.95758890 618.24449288 612.40028705 604.05853796 592.69903380 577.66992057 558.24665242 533.72716530 503.57629636 467.63051160 426.29513522 380.64601495 332.49229495 284.13874563 237.74959539 200.00000000 200.00000000 200.00000000 200.00000000 200.00000000 200.00000000 200.00000000 200.00000000 200.00000000 248.73886511 293.03992630 338.31118537 382.30773948 423.10652978 459.57292270 491.02729318 517.35042862 538.81473103 555.88337170 569.10877233 579.04267169 586.14564230 590.73460002 592.98972746 592.98972746 590.73460002 586.14564230 579.04267169 569.10877233 555.88337170 538.81473103 517.35042862 491.02729318 459.57292270 423.10652978 382.30773948 338.31118537 293.03992630 248.73886511 200.00000000 200.00000000 200.00000000 200.00000000 200.00000000 200.00000000 200.00000000 200.00000000 200.00000000 200.00000000 220.22829232 250.64226143 291.85146372 333.32088156 372.40053611 408.38430186 440.22471429 467.58563611 490.51818762 509.19991172 523.98047414 535.31143533 543.58865464 549.04054268 551.75389485 551.75389485 549.04054268 543.58865464 535.31143533 523.98047414 509.19991172 490.51818762 467.58563611 440.22471429 408.38430186 372.40053611 333.32088156 291.85146372 250.64226143 220.22829232 200.00000000 200.00000000 200.00000000 200.00000000 200.00000000 200.00000000 200.00000000 200.00000000 200.00000000 200.00000000 200.00000000 200.00000000 243.40293417 282.40472453 317.87246572 352.25843526 383.21941182 410.48173680 433.99026755 453.50290235 469.15986356 481.39276638 490.58698401 496.81442974 499.96602700 499.96602700 496.81442974 490.58698401 481.39276638 469.15986356 453.50290235 433.99026755 410.48173680 383.21941182 352.25843526 317.87246572 282.40472453 243.40293417 200.00000000 200.00000000 200.00000000 200.00000000 200.00000000 200.00000000 200.00000000 200.00000000 200.00000000 200.00000000 200.00000000 200.00000000 200.00000000 200.00000000 200.00000000 234.95073845 261.57221640 294.25663062 322.73582929 348.59362666 371.73210654 391.00766559 406.46201155 418.78978009 428.58241722 435.55017713 439.15090424 439.15090424 435.55017713 428.58241722 418.78978009 406.46201155 391.00766559 371.73210654 348.59362666 322.73582929 294.25663062 261.57221640 234.95073845 200.00000000 200.00000000 200.00000000 200.00000000 200.00000000 200.00000000 200.00000000 200.00000000 200.00000000 200.00000000 200.00000000 200.00000000 200.00000000 200.00000000 200.00000000 200.00000000 200.00000000 200.00000000 238.84110375 261.65309949 285.38314580 307.61486309 325.19862991 338.79550404 350.03801859 360.45502887 368.50901703 372.70232279 372.70232279 368.50901703 360.45502887 350.03801859 338.79550404 325.19862991 307.61486309 285.38314580 261.65309949 238.84110375 200.00000000 200.00000000 200.00000000 200.00000000 200.00000000 200.00000000 200.00000000 200.00000000 200.00000000 200.00000000 200.00000000 200.00000000 200.00000000 200.00000000 200.00000000 200.00000000 200.00000000 200.00000000 200.00000000 200.00000000 200.00000000 200.00000000 226.90887002 247.48283283 260.37924698 269.32804710 277.52770192 290.48310968 300.92323731 305.96500950 305.96500950 300.92323731 290.48310968 277.52770192 269.32804710 260.37924698 247.48283283 226.90887002 200.00000000 200.00000000 200.00000000 200.00000000 200.00000000 200.00000000 200.00000000 200.00000000 200.00000000 200.00000000 200.00000000 200.00000000 200.00000000 200.00000000 200.00000000 200.00000000 200.00000000 200.00000000 200.00000000 200.00000000 200.00000000 200.00000000 200.00000000 200.00000000 200.00000000 200.00000000 200.00000000 200.00000000 200.00000000 226.57918609 240.90802025 246.16158743 246.16158743 240.90802025 226.57918609 200.00000000 200.00000000 200.00000000 200.00000000 200.00000000 200.00000000 200.00000000 200.00000000 200.00000000 200.00000000 200.00000000 200.00000000 200.00000000 200.00000000 200.00000000 200.00000000 200.00000000 200.00000000 200.00000000 200.00000000 200.00000000 200.00000000 200.00000000 200.00000000 200.00000000 200.00000000 200.00000000 200.00000000 200.00000000 200.00000000 200.00000000 200.00000000 200.00000000 200.00000000 200.00000000 200.00000000 200.00000000 200.00000000 200.00000000 200.00000000 200.00000000 200.00000000 200.00000000 200.00000000 200.00000000 200.00000000 200.00000000 200.00000000 200.00000000 200.00000000 200.00000000 200.00000000 200.00000000 200.00000000 200.00000000 200.00000000 200.00000000 200.00000000 200.00000000 200.00000000 200.00000000 200.00000000 200.00000000 200.00000000 200.00000000 200.00000000 200.00000000 200.00000000 200.00000000 200.00000000 200.00000000 200.00000000 200.00000000 200.00000000 200.00000000 200.00000000 200.00000000 200.00000000 200.00000000 200.00000000 200.00000000 200.00000000 200.00000000 200.00000000 200.00000000 200.00000000 200.00000000 200.00000000 200.00000000 200.00000000 200.00000000 200.00000000 200.00000000 200.00000000 200.00000000 200.00000000 200.00000000 200.00000000 200.00000000 200.00000000 200.00000000 200.00000000 200.00000000 200.00000000 200.00000000 200.00000000 200.00000000 200.00000000 200.00000000 200.00000000 200.00000000 200.00000000 200.00000000 200.00000000 200.00000000 200.00000000 200.00000000 200.00000000 200.00000000 200.00000000 200.00000000 200.00000000 200.00000000 200.00000000 200.00000000 200.00000000 200.00000000 200.00000000 200.00000000 200.00000000 200.00000000 200.00000000 200.00000000 200.00000000 200.00000000 200.00000000 200.00000000 200.00000000 200.00000000 200.00000000 200.00000000 200.00000000 200.00000000 200.00000000 200.00000000 200.00000000 200.00000000 200.00000000 200.00000000 200.00000000 200.00000000 200.00000000 200.00000000 200.00000000 200.00000000 200.00000000 200.00000000 200.00000000 200.00000000 200.00000000 200.00000000 200.00000000 200.00000000 200.00000000 200.00000000 200.00000000 200.00000000 200.00000000 200.00000000 200.00000000 200.00000000 200.00000000 200.00000000 200.00000000 200.00000000 200.00000000 200.00000000 200.00000000 200.00000000 200.00000000 200.00000000 200.00000000 200.00000000 200.00000000 200.00000000 200.00000000 200.00000000 200.00000000 200.00000000 200.00000000 200.00000000 200.00000000 200.00000000 200.00000000 200.00000000 200.00000000 200.00000000 200.00000000 200.00000000 200.00000000 200.00000000 200.00000000 200.00000000 200.00000000 200.00000000 200.00000000 200.00000000 200.00000000 200.00000000 200.00000000 200.00000000 200.00000000 200.00000000 200.00000000 200.00000000 200.00000000 200.00000000 200.00000000 200.00000000 200.00000000 200.00000000 200.00000000 200.00000000 200.00000000 200.00000000 200.00000000 200.00000000 200.00000000 200.00000000 200.00000000 200.00000000 200.00000000 200.00000000 200.00000000 200.00000000 200.00000000 200.00000000 200.00000000 200.00000000 200.00000000 200.00000000 200.00000000 200.00000000 200.00000000 200.00000000 200.00000000 200.00000000 200.00000000 200.00000000 200.00000000 200.00000000 200.00000000 200.00000000 200.00000000 200.00000000 200.00000000 200.00000000 200.00000000 200.00000000 200.00000000 200.00000000 200.00000000 200.00000000 200.00000000 200.00000000 200.00000000 200.00000000 200.00000000 200.00000000 200.00000000 200.00000000 200.00000000 200.00000000 200.00000000 200.00000000 200.00000000 200.00000000 200.00000000 200.00000000 200.00000000 200.00000000 200.00000000 200.00000000 200.00000000 200.00000000 200.00000000 200.00000000 200.00000000 200.00000000 200.00000000 200.00000000 200.00000000 200.00000000 200.00000000 200.00000000 200.00000000 200.00000000 200.00000000 200.00000000 200.00000000 200.00000000 200.00000000 200.00000000 200.00000000 200.00000000 200.00000000 200.00000000 200.00000000 200.00000000 200.00000000 200.00000000 200.00000000 200.00000000 200.00000000 200.00000000 200.00000000 200.00000000 200.00000000 200.00000000 200.00000000 200.00000000 200.00000000 200.00000000 200.00000000 200.00000000 200.00000000 200.00000000 200.00000000 200.00000000 200.00000000 200.00000000 200.00000000 200.00000000 200.00000000 200.00000000 200.00000000 200.00000000 