# vtk DataFile Version 3.0
VTK - Matlab export
ASCII
DATASET STRUCTURED_POINTS
DIMENSIONS 40 40 1
SPACING 1 1 1
ORIGIN 0 0 0
POINT_DATA 1600
SCALARS Temperature float 1
LOOKUP_TABLE default
200.00000000 200.00000000 200.00000000 200.00000000 200.00000000 200.00000000 200.00000000 200.00000000 200.00000000 200.00000000 200.00000000 200.00000000 200.00000000 200.00000000 200.00000000 200.00000000 200.00000000 200.00000000 200.00000000 200.00000000 200.00000000 200.00000000 200.00000000 200.00000000 200.00000000 200.00000000 200.00000000 200.00000000 200.00000000 200.00000000 200.00000000 200.00000000 200.00000000 200.00000000 200.00000000 200.00000000 200.00000000 200.00000000 200.00000000 200.00000000 200.00000000 200.00000000 200.00000000 200.00000000 200.00000000 200.00000000 200.00000000 200.00000000 200.00000000 200.00000000 200.00000000 200.00000000 200.00000000 200.00000000 200.00000000 200.00000000 200.00000000 200.00000000 200.00000000 200.00000000 200.00000000 200.00000000 200.00000000 200.00000000 200.00000000 200.00000000 200.00000000 200.00000000 200.00000000 200.00000000 200.00000000 200.00000000 200.00000000 200.00000000 200.00000000 200.00000000 200.00000000 200.00000000 200.00000000 200.00000000 200.00000000 200.00000000 200.00000000 200.00000000 200.00000000 200.00000000 200.00000000 200.00000000 200.00000000 200.00000000 200.00000000 200.00000000 200.00000000 200.00000000 200.00000000 200.00000000 200.00000000 200.00000000 200.00000000 200.00000000 200.00000000 200.00000000 200.00000000 200.00000000 200.00000000 200.00000000 200.00000000 200.00000000 200.00000000 200.00000000 200.00000000 200.00000000 200.00000000 200.00000000 200.00000000 200.00000000 200.00000000 200.00000000 200.00000000 200.00000000 200.00000000 200.00000000 200.00000000 200.00000000 200.00000000 200.00000000 200.00000000 200.00000000 200.00000000 200.00000000 200.00000000 200.00000000 200.00000000 200.00000000 200.00000000 200.00000000 200.00000000 200.00000000 200.00000000 200.00000000 200.00000000 200.00000000 200.00000000 200.00000000 200.00000000 200.00000000 200.00000000 200.00000000 200.00000000 200.00000000 200.00000000 200.00000000 200.00000000 200.00000000 200.00000000 200.00000000 200.00000000 200.00000000 200.00000000 200.00000000 200.00000000 200.00000000 200.00000000 200.00000000 200.00000000 200.00000000 200.00000000 200.00000000 200.00000000 200.00000000 200.00000000 200.00000000 200.00000000 200.00000000 200.00000000 200.00000000 200.00000000 200.00000000 200.00000000 200.00000000 200.00000000 200.00000000 200.00000000 200.00000000 200.00000000 200.00000000 200.00000000 200.00000000 200.00000000 200.00000000 200.00000000 200.00000000 200.00000000 200.00000000 200.00000000 200.00000000 200.00000000 200.00000000 200.00000000 200.00000000 200.00000000 200.00000000 200.00000000 200.00000000 200.00000000 200.00000000 200.00000000 200.00000000 200.00000000 200.00000000 200.00000000 200.00000000 200.00000000 200.00000000 200.00000000 200.00000000 200.00000000 200.00000000 200.00000000 200.00000000 200.00000000 200.00000000 200.00000000 200.00000000 200.00000000 200.00000000 200.00000000 200.00000000 200.00000000 200.00000000 200.00000000 200.00000000 200.00000000 200.00000000 200.00000000 200.00000000 200.00000000 200.00000000 200.00000000 200.00000000 200.00000000 200.00000000 200.00000000 200.00000000 200.00000000 200.00000000 200.00000000 200.00000000 200.00000000 200.00000000 200.00000000 200.00000000 200.00000000 200.00000000 200.00000000 200.00000000 200.00000000 200.00000000 200.00000000 200.00000000 200.00000000 200.00000000 200.00000000 200.00000000 200.00000000 200.00000000 200.00000000 200.00000000 200.00000000 200.00000000 200.00000000 200.00000000 200.00000000 200.00000000 200.00000000 200.00000000 200.00000000 200.00000000 200.00000000 200.00000000 200.00000000 200.00000000 200.00000000 200.00000000 200.00000000 200.00000000 200.00000000 200.00000000 200.00000000 200.00000000 200.00000000 200.00000000 200.00000000 200.00000000 200.00000000 200.00000000 200.00000000 200.00000000 200.00000000 200.00000000 200.00000000 200.00000000 200.00000000 200.00000000 200.00000000 200.00000000 200.00000000 200.00000000 200.00000000 200.00000000 200.00000000 200.00000000 200.00000000 200.00000000 200.00000000 200.00000000 200.00000000 200.00000000 200.00000000 200.00000000 200.00000000 200.00000000 200.00000000 200.00000000 200.00000000 200.00000000 200.00000000 200.00000000 200.00000000 200.00000000 200.00000000 200.00000000 200.00000000 200.00000000 200.00000000 200.00000000 200.00000000 223.30323366 235.84024294 240.43161371 240.43161371 235.84024294 223.30323366 200.00000000 200.00000000 200.00000000 200.00000000 200.00000000 200.00000000 200.00000000 200.00000000 200.00000000 200.00000000 200.00000000 200.00000000 200.00000000 200.00000000 200.00000000 200.00000000 200.00000000 200.00000000 200.00000000 200.00000000 200.00000000 200.00000000 200.00000000 200.00000000 200.00000000 200.00000000 200.00000000 200.00000000 200.00000000 223.44874474 241.43917247 252.80255715 260.76269878 268.07013586 279.49947922 288.68320549 293.11610148 293.11610148 288.68320549 279.49947922 268.07013586 260.76269878 252.80255715 241.43917247 223.44874474 200.00000000 200.00000000 200.00000000 200.00000000 200.00000000 200.00000000 200.00000000 200.00000000 200.00000000 200.00000000 200.00000000 200.00000000 200.00000000 200.00000000 200.00000000 200.00000000 200.00000000 200.00000000 200.00000000 200.00000000 200.00000000 200.00000000 233.68942328 253.62338684 274.48538822 294.14804500 309.84716657 322.11021242 332.29785838 341.69002975 348.92067477 352.68072089 352.68072089 348.92067477 341.69002975 332.29785838 322.11021242 309.84716657 294.14804500 274.48538822 253.62338684 233.68942328 200.00000000 200.00000000 200.00000000 200.00000000 200.00000000 200.00000000 200.00000000 200.00000000 200.00000000 200.00000000 200.00000000 200.00000000 200.00000000 200.00000000 200.00000000 200.00000000 200.00000000 200.00000000 230.11926239 253.25413815 281.83976589 307.01948785 330.12893292 351.01711755 368.62091241 382.89772475 394.37164116 403.49206850 409.96776086 413.31012654 413.31012654 409.96776086 403.49206850 394.37164116 382.89772475 368.62091241 351.01711755 330.12893292 307.01948785 281.83976589 253.25413815 230.11926239 200.00000000 200.00000000 200.00000000 200.00000000 200.00000000 200.00000000 200.00000000 200.00000000 200.00000000 200.00000000 200.00000000 200.00000000 200.00000000 200.00000000 200.00000000 237.25348274 271.01833382 302.11045170 332.64117223 360.54817355 385.50677312 407.35303049 425.75833884 440.73273860 452.55448488 461.48552229 467.54285405 470.60883193 470.60883193 467.54285405 461.48552229 452.55448488 440.73273860 425.75833884 407.35303049 385.50677312 360.54817355 332.64117223 302.11045170 271.01833382 237.25348274 200.00000000 200.00000000 200.00000000 200.00000000 200.00000000 200.00000000 200.00000000 200.00000000 200.00000000 200.00000000 200.00000000 200.00000000 217.18286213 243.20543071 278.78578014 315.07175834 349.85491563 382.49094566 411.96743288 437.83551965 459.96359187 478.34144124 493.13519210 504.63242766 513.10609646 518.71332328 521.50963498 521.50963498 518.71332328 513.10609646 504.63242766 493.13519210 478.34144124 459.96359187 437.83551965 411.96743288 382.49094566 349.85491563 315.07175834 278.78578014 243.20543071 217.18286213 200.00000000 200.00000000 200.00000000 200.00000000 200.00000000 200.00000000 200.00000000 200.00000000 200.00000000 200.00000000 241.33900759 279.32290106 318.74343209 357.80296249 394.86366039 428.84053131 458.95021504 484.84949743 506.53728978 524.21513175 538.21374451 548.91443620 556.66171458 561.70533988 564.19360180 564.19360180 561.70533988 556.66171458 548.91443620 538.21374451 524.21513175 506.53728978 484.84949743 458.95021504 428.84053131 394.86366039 357.80296249 318.74343209 279.32290106 241.33900759 200.00000000 200.00000000 200.00000000 200.00000000 200.00000000 200.00000000 200.00000000 200.00000000 200.00000000 231.80311316 271.24246715 312.96808805 355.37953782 396.61656353 435.07478992 469.62652323 499.62446920 524.88595705 545.58429062 562.10769066 574.94244500 584.57925438 591.44232385 595.84958056 598.00442601 598.00442601 595.84958056 591.44232385 584.57925438 574.94244500 562.10769066 545.58429062 524.88595705 499.62446920 469.62652323 435.07478992 396.61656353 355.37953782 312.96808805 271.24246715 231.80311316 200.00000000 200.00000000 200.00000000 200.00000000 200.00000000 200.00000000 200.00000000 222.04423457 256.43787432 297.84970447 342.21757437 386.85546773 429.60259588 468.79585450 503.34738318 532.74622405 556.98392440 576.41437837 591.59413910 603.14547239 611.65640851 617.61829489 621.39701102 623.22901608 623.22901608 621.39701102 617.61829489 611.65640851 603.14547239 591.59413910 576.41437837 556.98392440 532.74622405 503.34738318 468.79585450 429.60259588 386.85546773 342.21757437 297.84970447 256.43787432 222.04423457 200.00000000 200.00000000 200.00000000 200.00000000 200.00000000 200.00000000 234.34527979 274.19938851 318.70282405 365.36515532 411.65098402 455.36310314 494.84216455 529.07332528 557.67923257 580.81244731 598.98647209 612.89699352 623.27367427 630.77893966 635.95229223 639.19007517 640.74719415 640.74719415 639.19007517 635.95229223 630.77893966 623.27367427 612.89699352 598.98647209 580.81244731 557.67923257 529.07332528 494.84216455 455.36310314 411.65098402 365.36515532 318.70282405 274.19938851 234.34527979 200.00000000 200.00000000 200.00000000 200.00000000 200.00000000 200.00000000 242.16892231 286.05414802 333.00647964 381.33499923 428.70958882 472.97208954 512.49728220 546.34280249 574.23953272 596.46354982 613.64643612 626.58262952 636.07504943 642.83478559 647.43088170 650.27652125 651.63561013 651.63561013 650.27652125 647.43088170 642.83478559 636.07504943 626.58262952 613.64643612 596.46354982 574.23953272 546.34280249 512.49728220 472.97208954 428.70958882 381.33499923 333.00647964 286.05414802 242.16892231 200.00000000 200.00000000 200.00000000 200.00000000 200.00000000 212.39224219 248.47665903 292.49608033 340.37058054 389.49207244 437.39169124 481.89558552 521.39602872 554.99296237 582.47756026 604.19280106 620.83281426 633.24308419 642.26339911 648.62855654 652.92128715 655.56195567 656.81789093 656.81789093 655.56195567 652.92128715 648.62855654 642.26339911 633.24308419 620.83281426 604.19280106 582.47756026 554.99296237 521.39602872 481.89558552 437.39169124 389.49207244 340.37058054 292.49608033 248.47665903 212.39224219 200.00000000 200.00000000 200.00000000 200.00000000 212.39224219 248.47665903 292.49608033 340.37058054 389.49207244 437.39169124 481.89558552 521.39602872 554.99296237 582.47756026 604.19280106 620.83281426 633.24308419 642.26339911 648.62855654 652.92128715 655.56195567 656.81789093 656.81789093 655.56195567 652.92128715 648.62855654 642.26339911 633.24308419 620.83281426 604.19280106 582.47756026 554.99296237 521.39602872 481.89558552 437.39169124 389.49207244 340.37058054 292.49608033 248.47665903 212.39224219 200.00000000 200.00000000 200.00000000 200.00000000 200.00000000 242.16892231 286.05414802 333.00647964 381.33499923 428.70958882 472.97208954 512.49728220 546.34280249 574.23953272 596.46354982 613.64643612 626.58262952 636.07504943 642.83478559 647.43088170 650.27652125 651.63561013 651.63561013 650.27652125 647.43088170 642.83478559 636.07504943 626.58262952 613.64643612 596.46354982 574.23953272 546.34280249 512.49728220 472.97208954 428.70958882 381.33499923 333.00647964 286.05414802 242.16892231 200.00000000 200.00000000 200.00000000 200.00000000 200.00000000 200.00000000 234.34527979 274.19938851 318.70282405 365.36515532 411.65098402 455.36310314 494.84216455 529.07332528 557.67923257 580.81244731 598.98647209 612.89699352 623.27367427 630.77893966 635.95229223 639.19007517 640.74719415 640.74719415 639.19007517 635.95229223 630.77893966 623.27367427 612.89699352 598.98647209 580.81244731 557.67923257 529.07332528 494.84216455 455.36310314 411.65098402 365.36515532 318.70282405 274.19938851 234.34527979 200.00000000 200.00000000 200.00000000 200.00000000 200.00000000 200.00000000 222.04423457 256.43787432 297.84970447 342.21757437 386.85546773 429.60259588 468.79585450 503.34738318 532.74622405 556.98392440 576.41437837 591.59413910 603.14547239 611.65640851 617.61829489 621.39701102 623.22901608 623.22901608 621.39701102 617.61829489 611.65640851 603.14547239 591.59413910 576.41437837 556.98392440 532.74622405 503.34738318 468.79585450 429.60259588 386.85546773 342.21757437 297.84970447 256.43787432 222.04423457 200.00000000 200.00000000 200.00000000 200.00000000 200.00000000 200.00000000 200.00000000 231.80311316 271.24246715 312.96808805 355.37953782 396.61656353 435.07478992 469.62652323 499.62446920 524.88595705 545.58429062 562.10769066 574.94244500 584.57925438 591.44232385 595.84958056 598.00442601 598.00442601 595.84958056 591.44232385 584.57925438 574.94244500 562.10769066 545.58429062 524.88595705 499.62446920 469.62652323 435.07478992 396.61656353 355.37953782 312.96808805 271.24246715 231.80311316 200.00000000 200.00000000 200.00000000 200.00000000 200.00000000 200.00000000 200.00000000 200.00000000 200.00000000 241.33900759 279.32290106 318.74343209 357.80296249 394.86366039 428.84053131 458.95021504 484.84949743 506.53728978 524.21513175 538.21374451 548.91443620 556.66171458 561.70533988 564.19360180 564.19360180 561.70533988 556.66171458 548.91443620 538.21374451 524.21513175 506.53728978 484.84949743 458.95021504 428.84053131 394.86366039 357.80296249 318.74343209 279.32290106 241.33900759 200.00000000 200.00000000 200.00000000 200.00000000 200.00000000 200.00000000 200.00000000 200.00000000 200.00000000 200.00000000 217.18286213 243.20543071 278.78578014 315.07175834 349.85491563 382.49094566 411.96743288 437.83551965 459.96359187 478.34144124 493.13519210 504.63242766 513.10609646 518.71332328 521.50963498 521.50963498 518.71332328 513.10609646 504.63242766 493.13519210 478.34144124 459.96359187 437.83551965 411.96743288 382.49094566 349.85491563 315.07175834 278.78578014 243.20543071 217.18286213 200.00000000 200.00000000 200.00000000 200.00000000 200.00000000 200.00000000 200.00000000 200.00000000 200.00000000 200.00000000 200.00000000 200.00000000 237.25348274 271.01833382 302.11045170 332.64117223 360.54817355 385.50677312 407.35303049 425.75833884 440.73273860 452.55448488 461.48552229 467.54285405 470.60883193 470.60883193 467.54285405 461.48552229 452.55448488 440.73273860 425.75833884 407.35303049 385.50677312 360.54817355 332.64117223 302.11045170 271.01833382 237.25348274 200.00000000 200.00000000 200.00000000 200.00000000 200.00000000 200.00000000 200.00000000 200.00000000 200.00000000 200.00000000 200.00000000 200.00000000 200.00000000 200.00000000 200.00000000 230.11926239 253.25413815 281.83976589 307.01948785 330.12893292 351.01711755 368.62091241 382.89772475 394.37164116 403.49206850 409.96776086 413.31012654 413.31012654 409.96776086 403.49206850 394.37164116 382.89772475 368.62091241 351.01711755 330.12893292 307.01948785 281.83976589 253.25413815 230.11926239 200.00000000 200.00000000 200.00000000 200.00000000 200.00000000 200.00000000 200.00000000 200.00000000 200.00000000 200.00000000 200.00000000 200.00000000 200.00000000 200.00000000 200.00000000 200.00000000 200.00000000 200.00000000 233.68942328 253.62338684 274.48538822 294.14804500 309.84716657 322.11021242 332.29785838 341.69002975 348.92067477 352.68072089 352.68072089 348.92067477 341.69002975 332.29785838 322.11021242 309.84716657 294.14804500 274.48538822 253.62338684 233.68942328 200.00000000 200.00000000 200.00000000 200.00000000 200.00000000 200.00000000 200.00000000 200.00000000 200.00000000 200.00000000 200.00000000 200.00000000 200.00000000 200.00000000 200.00000000 200.00000000 200.00000000 200.00000000 200.00000000 200.00000000 200.00000000 200.00000000 223.44874474 241.43917247 252.80255715 260.76269878 268.07013586 279.49947922 288.68320549 293.11610148 293.11610148 288.68320549 279.49947922 268.07013586 260.76269878 252.80255715 241.43917247 223.44874474 200.00000000 200.00000000 200.00000000 200.00000000 200.00000000 200.00000000 200.00000000 200.00000000 200.00000000 200.00000000 200.00000000 200.00000000 200.00000000 200.00000000 200.00000000 200.00000000 200.00000000 200.00000000 200.00000000 200.00000000 200.00000000 200.00000000 200.00000000 200.00000000 200.00000000 200.00000000 200.00000000 200.00000000 200.00000000 223.30323366 235.84024294 240.43161371 240.43161371 235.84024294 223.30323366 200.00000000 200.00000000 200.00000000 200.00000000 200.00000000 200.00000000 200.00000000 200.00000000 200.00000000 200.00000000 200.00000000 200.00000000 200.00000000 200.00000000 200.00000000 200.00000000 200.00000000 200.00000000 200.00000000 200.00000000 200.00000000 200.00000000 200.00000000 200.00000000 200.00000000 200.00000000 200.00000000 200.00000000 200.00000000 200.00000000 200.00000000 200.00000000 200.00000000 200.00000000 200.00000000 200.00000000 200.00000000 200.00000000 200.00000000 200.00000000 200.00000000 200.00000000 200.00000000 200.00000000 200.00000000 200.00000000 200.00000000 200.00000000 200.00000000 200.00000000 200.00000000 200.00000000 200.00000000 200.00000000 200.00000000 200.00000000 200.00000000 200.00000000 200.00000000 200.00000000 200.00000000 200.00000000 200.00000000 200.00000000 200.00000000 200.00000000 200.00000000 200.00000000 200.00000000 200.00000000 200.00000000 200.00000000 200.00000000 200.00000000 200.00000000 200.00000000 200.00000000 200.00000000 200.00000000 200.00000000 200.00000000 200.00000000 200.00000000 200.00000000 200.00000000 200.00000000 200.00000000 200.00000000 200.00000000 200.00000000 200.00000000 200.00000000 200.00000000 200.00000000 200.00000000 200.00000000 200.00000000 200.00000000 200.00000000 200.00000000 200.00000000 200.00000000 200.00000000 200.00000000 200.00000000 200.00000000 200.00000000 200.00000000 200.00000000 200.00000000 200.00000000 200.00000000 200.00000000 200.00000000 200.00000000 200.00000000 200.00000000 200.00000000 200.00000000 200.00000000 200.00000000 200.00000000 200.00000000 200.00000000 200.00000000 200.00000000 200.00000000 200.00000000 200.00000000 200.00000000 200.00000000 200.00000000 200.00000000 200.00000000 200.00000000 200.00000000 200.00000000 200.00000000 200.00000000 200.00000000 200.00000000 200.00000000 200.00000000 200.00000000 200.00000000 200.00000000 200.00000000 200.00000000 200.00000000 200.00000000 200.00000000 200.00000000 200.00000000 200.00000000 200.00000000 200.00000000 200.00000000 200.00000000 200.00000000 200.00000000 200.00000000 200.00000000 200.00000000 200.00000000 200.00000000 200.00000000 200.00000000 200.00000000 200.00000000 200.00000000 200.00000000 200.00000000 200.00000000 200.00000000 200.00000000 200.00000000 200.00000000 200.00000000 200.00000000 200.00000000 200.00000000 200.00000000 200.00000000 200.00000000 200.00000000 200.00000000 200.00000000 200.00000000 200.00000000 200.00000000 200.00000000 200.00000000 200.00000000 200.00000000 200.00000000 200.00000000 200.00000000 200.00000000 200.00000000 200.00000000 200.00000000 200.00000000 200.00000000 200.00000000 200.00000000 200.00000000 200.00000000 200.00000000 200.00000000 200.00000000 200.00000000 200.00000000 200.00000000 200.00000000 200.00000000 200.00000000 200.00000000 200.00000000 200.00000000 200.00000000 200.00000000 200.00000000 200.00000000 200.00000000 200.00000000 200.00000000 200.00000000 200.00000000 200.00000000 200.00000000 200.00000000 200.00000000 200.00000000 200.00000000 200.00000000 200.00000000 200.00000000 200.00000000 200.00000000 200.00000000 200.00000000 200.00000000 200.00000000 200.00000000 200.00000000 200.00000000 200.00000000 200.00000000 200.00000000 200.00000000 200.00000000 200.00000000 200.00000000 200.00000000 200.00000000 200.00000000 200.00000000 200.00000000 200.00000000 200.00000000 200.00000000 200.00000000 200.00000000 200.00000000 200.00000000 200.00000000 200.00000000 200.00000000 200.00000000 200.00000000 200.00000000 200.00000000 200.00000000 200.00000000 200.00000000 200.00000000 200.00000000 200.00000000 200.00000000 200.00000000 200.00000000 200.00000000 200.00000000 200.00000000 200.00000000 200.00000000 200.00000000 200.00000000 200.00000000 200.00000000 200.00000000 200.00000000 200.00000000 200.00000000 200.00000000 200.00000000 200.00000000 200.00000000 200.00000000 200.00000000 200.00000000 200.00000000 200.00000000 200.00000000 200.00000000 200.00000000 200.00000000 200.00000000 200.00000000 200.00000000 200.00000000 200.00000000 200.00000000 200.00000000 200.00000000 200.00000000 200.00000000 200.00000000 200.00000000 200.00000000 200.00000000 200.00000000 200.00000000 200.00000000 200.00000000 200.00000000 200.00000000 200.00000000 200.00000000 200.00000000 200.00000000 200.00000000 200.00000000 200.00000000 200.00000000 200.00000000 200.00000000 