# vtk DataFile Version 3.0
VTK - Matlab export
ASCII
DATASET STRUCTURED_POINTS
DIMENSIONS 40 40 1
SPACING 1 1 1
ORIGIN 0 0 0
POINT_DATA 1600
SCALARS Proofstrength float 1
LOOKUP_TABLE default
140.71398941 140.71398941 140.71398941 140.71398941 140.71398941 140.71398941 140.71398941 140.71398941 140.71398941 140.71398941 140.71398941 140.71398941 140.71398941 140.71398941 140.71398941 140.71398941 140.71398941 140.71398941 140.71398941 140.71398941 140.71398941 140.71398941 140.71398941 140.71398941 140.71398941 140.71398941 140.71398941 140.71398941 140.71398941 140.71398941 140.71398941 140.71398941 140.71398941 140.71398941 140.71398941 140.71398941 140.71398941 140.71398941 140.71398941 140.71398941 140.71398941 140.71398941 140.71398941 140.71398941 140.71398941 140.71398941 140.71398941 140.71398941 140.71398941 140.71398941 140.71398941 140.71398941 140.71398941 140.71398941 140.71398941 140.71398941 140.71398941 140.71398941 140.71398941 140.71398941 140.71398941 140.71398941 140.71398941 140.71398941 140.71398941 140.71398941 140.71398941 140.71398941 140.71398941 140.71398941 140.71398941 140.71398941 140.71398941 140.71398941 140.71398941 140.71398941 140.71398941 140.71398941 140.71398941 140.71398941 140.71398941 140.71398941 140.71398941 140.71398941 140.71398941 140.71398941 140.71398941 140.71398941 140.71398941 140.71398941 140.71398941 140.71398941 140.71398941 140.71398941 140.71398941 140.71398941 140.71398941 140.71398941 140.71398941 140.71398941 140.71398941 140.71398941 140.71398941 140.71398941 140.71398941 140.71398941 140.71398941 140.71398941 140.71398941 140.71398941 140.71398941 140.71398941 140.71398941 140.71398941 140.71398941 140.71398941 140.71398941 140.71398941 140.71398941 140.71398941 140.71398941 140.71398941 140.71398941 140.71398941 140.71398941 140.71398941 140.71398941 140.71398941 140.71398941 140.71398941 140.71398941 140.71398941 140.71398941 140.71398941 140.71398941 140.71398941 140.71398941 140.71398941 140.71398941 140.71398941 140.71398941 140.71398941 140.71398941 140.71398941 140.71398941 140.71398941 140.71398941 140.71398941 140.71398941 140.71398941 140.71398941 140.71398941 140.71398941 140.71398941 140.71398941 140.71398941 140.71398941 140.71398941 140.71398941 140.71398941 140.71398941 140.71398941 140.71398941 140.71398941 140.71398941 140.71398941 140.71398941 140.71398941 140.71398941 140.71398941 140.71398941 140.71398941 140.71398941 140.71398941 140.71398941 140.71398941 140.71398941 140.71398941 140.71398941 140.71398941 140.71398941 140.71398941 140.71398941 140.71398941 140.71398941 140.71398941 140.71398941 140.71398941 140.71398941 140.71398941 140.71398941 140.71398941 140.71398941 140.71398941 140.71398941 140.71398941 140.71398941 140.71398941 140.71398941 140.71398941 140.71398941 140.71398941 140.71398941 140.71398941 140.71398941 140.71398941 140.71398941 140.71398941 140.71398941 140.71398941 140.71398941 140.71398941 140.71398941 140.71398941 140.71398941 140.71398941 140.71398941 140.71398941 140.71398941 140.71398941 140.71398941 140.71398941 140.71398941 140.71398941 140.71398941 140.71398941 140.71398941 140.71398941 140.71398941 140.71398941 140.71398941 140.71398941 140.71398941 140.71398941 140.71398941 140.71398941 140.71398941 140.71398941 140.71398941 140.71398941 140.71398941 140.71398941 140.71398941 140.71398941 140.71398941 140.71398941 140.71398941 140.71398941 140.71398941 140.71398941 140.71398941 140.71398941 140.71398941 140.71398941 140.71398941 140.71398941 140.71398941 140.71398941 140.71398941 140.71398941 140.71398941 140.71398941 140.71398941 140.71398941 140.71398941 140.71398941 140.71398941 140.71398941 140.71398941 140.71398941 140.71398941 140.71398941 140.71398941 140.71398941 140.71398941 140.71398941 140.71398941 140.71398941 140.71398941 140.71398941 140.71398941 140.71398941 140.71398941 140.71398941 140.71398941 140.71398941 140.71398941 140.71398941 140.71398941 140.71398941 140.71398941 140.71398941 140.71398941 140.71398941 140.71398941 140.71398941 140.71398941 140.71398941 140.71398941 140.71398941 140.71398941 140.71398941 140.71398941 140.71398941 140.71398941 140.71398941 140.71398941 140.71398941 140.71398941 140.71398941 140.71398941 140.71398941 140.71398941 140.71398941 140.71398941 140.71398941 140.71398941 140.71398941 140.71398941 140.71398941 140.71398941 140.71398941 140.71398941 140.71398941 140.71398941 140.71398941 140.71398941 140.71398941 140.71398941 140.71398941 140.71398941 140.71398941 140.71398941 140.71398941 140.71398941 140.71398941 140.71398941 140.73159899 140.74236322 140.74673173 140.74673173 140.74236322 140.73159899 140.71398941 140.71398941 140.71398941 140.71398941 140.71398941 140.71398941 140.71398941 140.71398941 140.71398941 140.71398941 140.71398941 140.71398941 140.71398941 140.71398941 140.71398941 140.71398941 140.71398941 140.71398941 140.71398941 140.71398941 140.71398941 140.71398941 140.71398941 140.71398941 140.71398941 140.71398941 140.71398941 140.71398941 140.71398941 140.73241792 140.74604827 140.75309987 140.75654166 140.75969370 140.76744987 140.77481993 140.77869742 140.77869742 140.77481993 140.76744987 140.75969370 140.75654166 140.75309987 140.74604827 140.73241792 140.71398941 140.71398941 140.71398941 140.71398941 140.71398941 140.71398941 140.71398941 140.71398941 140.71398941 140.71398941 140.71398941 140.71398941 140.71398941 140.71398941 140.71398941 140.71398941 140.71398941 140.71398941 140.71398941 140.71398941 140.71398941 140.71398941 140.74100183 140.75487476 140.76765218 140.77796538 140.78356076 140.78570379 140.78697535 140.78966201 140.79282269 140.79475642 140.79475642 140.79282269 140.78966201 140.78697535 140.78570379 140.78356076 140.77796538 140.76765218 140.75487476 140.74100183 140.71398941 140.71398941 140.71398941 140.71398941 140.71398941 140.71398941 140.71398941 140.71398941 140.71398941 140.71398941 140.71398941 140.71398941 140.71398941 140.71398941 140.71398941 140.71398941 140.71398941 140.71398941 140.73899526 140.75539218 140.77326415 140.78441856 140.79094664 140.79417088 140.79426992 140.79236883 140.79018410 140.78902634 140.78886315 140.78899745 140.78899745 140.78886315 140.78902634 140.79018410 140.79236883 140.79426992 140.79417088 140.79094664 140.78441856 140.77326415 140.75539218 140.73899526 140.71398941 140.71398941 140.71398941 140.71398941 140.71398941 140.71398941 140.71398941 140.71398941 140.71398941 140.71398941 140.71398941 140.71398941 140.71398941 140.71398941 140.71398941 140.74470447 140.76832729 140.78355393 140.79276834 140.79554610 140.79388145 140.78986496 140.78471532 140.77941213 140.77486761 140.77165727 140.76978664 140.76895651 140.76895651 140.76978664 140.77165727 140.77486761 140.77941213 140.78471532 140.78986496 140.79388145 140.79554610 140.79276834 140.78355393 140.76832729 140.74470447 140.71398941 140.71398941 140.71398941 140.71398941 140.71398941 140.71398941 140.71398941 140.71398941 140.71398941 140.71398941 140.71398941 140.71398941 140.73020558 140.75120756 140.77437792 140.78973514 140.79574373 140.79451873 140.78846917 140.78025178 140.77188135 140.76436979 140.75812929 140.75332616 140.74996338 140.74788898 140.74690810 140.74690810 140.74788898 140.74996338 140.75332616 140.75812929 140.76436979 140.77188135 140.78025178 140.78846917 140.79451873 140.79574373 140.78973514 140.77437792 140.75120756 140.73020558 140.71398941 140.71398941 140.71398941 140.71398941 140.71398941 140.71398941 140.71398941 140.71398941 140.71398941 140.71398941 140.75192043 140.77781981 140.79317861 140.79723556 140.79232566 140.78237263 140.77081448 140.75997381 140.75097455 140.74402261 140.73888392 140.73522986 140.73276451 140.73125064 140.73052968 140.73052968 140.73125064 140.73276451 140.73522986 140.73888392 140.74402261 140.75097455 140.75997381 140.77081448 140.78237263 140.79232566 140.79723556 140.79317861 140.77781981 140.75192043 140.71398941 140.71398941 140.71398941 140.71398941 140.71398941 140.71398941 140.71398941 140.71398941 140.71398941 140.74619611 140.77704314 140.79545405 140.79951105 140.79221707 140.77890084 140.76438815 140.75158108 140.74158085 140.73435817 140.72937982 140.72603134 140.72381411 140.72238281 140.72152168 140.72111431 140.72111431 140.72152168 140.72238281 140.72381411 140.72603134 140.72937982 140.73435817 140.74158085 140.75158108 140.76438815 140.77890084 140.79221707 140.79951105 140.79545405 140.77704314 140.74619611 140.71398941 140.71398941 140.71398941 140.71398941 140.71398941 140.71398941 140.71398941 140.73916483 140.77112879 140.79522366 140.80318648 140.79601659 140.78020303 140.76261679 140.74751486 140.73632269 140.72876037 140.72393396 140.72094364 140.71910580 140.71797219 140.71727502 140.71686687 140.71667619 140.71667619 140.71686687 140.71727502 140.71797219 140.71910580 140.72094364 140.72393396 140.72876037 140.73632269 140.74751486 140.76261679 140.78020303 140.79601659 140.80318648 140.79522366 140.77112879 140.73916483 140.71398941 140.71398941 140.71398941 140.71398941 140.71398941 140.71398941 140.75292802 140.78675191 140.80482749 140.80333538 140.78768268 140.76710206 140.74863727 140.73513990 140.72647341 140.72134953 140.71845899 140.71685609 140.71596058 140.71544867 140.71515027 140.71498110 140.71490331 140.71490331 140.71498110 140.71515027 140.71544867 140.71596058 140.71685609 140.71845899 140.72134953 140.72647341 140.73513990 140.74863727 140.76710206 140.78768268 140.80333538 140.80482749 140.78675191 140.75292802 140.71398941 140.71398941 140.71398941 140.71398941 140.71398941 140.71398941 140.76097034 140.79521346 140.80836963 140.80013947 140.77940451 140.75693031 140.73920269 140.72768697 140.72112676 140.71769912 140.71599201 140.71515189 140.71472997 140.71450873 140.71438742 140.71432110 140.71429112 140.71429112 140.71432110 140.71438742 140.71450873 140.71472997 140.71515189 140.71599201 140.71769912 140.72112676 140.72768697 140.73920269 140.75693031 140.77940451 140.80013947 140.80836963 140.79521346 140.76097034 140.71398941 140.71398941 140.71398941 140.71398941 140.71398941 140.72881547 140.76786541 140.79941047 140.80924616 140.79749467 140.77450760 140.75156282 140.73461658 140.72432573 140.71888812 140.71628038 140.71510001 140.71457486 140.71433566 140.71422029 140.71416073 140.71412926 140.71411525 140.71411525 140.71412926 140.71416073 140.71422029 140.71433566 140.71457486 140.71510001 140.71628038 140.71888812 140.72432573 140.73461658 140.75156282 140.77450760 140.79749467 140.80924616 140.79941047 140.76786541 140.72881547 140.71398941 140.71398941 140.71398941 140.71398941 140.72881547 140.76786541 140.79941047 140.80924616 140.79749467 140.77450760 140.75156282 140.73461658 140.72432573 140.71888812 140.71628038 140.71510001 140.71457486 140.71433566 140.71422029 140.71416073 140.71412926 140.71411525 140.71411525 140.71412926 140.71416073 140.71422029 140.71433566 140.71457486 140.71510001 140.71628038 140.71888812 140.72432573 140.73461658 140.75156282 140.77450760 140.79749467 140.80924616 140.79941047 140.76786541 140.72881547 140.71398941 140.71398941 140.71398941 140.71398941 140.71398941 140.76097034 140.79521346 140.80836963 140.80013947 140.77940451 140.75693031 140.73920269 140.72768697 140.72112676 140.71769912 140.71599201 140.71515189 140.71472997 140.71450873 140.71438742 140.71432110 140.71429112 140.71429112 140.71432110 140.71438742 140.71450873 140.71472997 140.71515189 140.71599201 140.71769912 140.72112676 140.72768697 140.73920269 140.75693031 140.77940451 140.80013947 140.80836963 140.79521346 140.76097034 140.71398941 140.71398941 140.71398941 140.71398941 140.71398941 140.71398941 140.75292802 140.78675191 140.80482749 140.80333538 140.78768268 140.76710206 140.74863727 140.73513990 140.72647341 140.72134953 140.71845899 140.71685609 140.71596058 140.71544867 140.71515027 140.71498110 140.71490331 140.71490331 140.71498110 140.71515027 140.71544867 140.71596058 140.71685609 140.71845899 140.72134953 140.72647341 140.73513990 140.74863727 140.76710206 140.78768268 140.80333538 140.80482749 140.78675191 140.75292802 140.71398941 140.71398941 140.71398941 140.71398941 140.71398941 140.71398941 140.73916483 140.77112879 140.79522366 140.80318648 140.79601659 140.78020303 140.76261679 140.74751486 140.73632269 140.72876037 140.72393396 140.72094364 140.71910580 140.71797219 140.71727502 140.71686687 140.71667619 140.71667619 140.71686687 140.71727502 140.71797219 140.71910580 140.72094364 140.72393396 140.72876037 140.73632269 140.74751486 140.76261679 140.78020303 140.79601659 140.80318648 140.79522366 140.77112879 140.73916483 140.71398941 140.71398941 140.71398941 140.71398941 140.71398941 140.71398941 140.71398941 140.74619611 140.77704314 140.79545405 140.79951105 140.79221707 140.77890084 140.76438815 140.75158108 140.74158085 140.73435817 140.72937982 140.72603134 140.72381411 140.72238281 140.72152168 140.72111431 140.72111431 140.72152168 140.72238281 140.72381411 140.72603134 140.72937982 140.73435817 140.74158085 140.75158108 140.76438815 140.77890084 140.79221707 140.79951105 140.79545405 140.77704314 140.74619611 140.71398941 140.71398941 140.71398941 140.71398941 140.71398941 140.71398941 140.71398941 140.71398941 140.71398941 140.75192043 140.77781981 140.79317861 140.79723556 140.79232566 140.78237263 140.77081448 140.75997381 140.75097455 140.74402261 140.73888392 140.73522986 140.73276451 140.73125064 140.73052968 140.73052968 140.73125064 140.73276451 140.73522986 140.73888392 140.74402261 140.75097455 140.75997381 140.77081448 140.78237263 140.79232566 140.79723556 140.79317861 140.77781981 140.75192043 140.71398941 140.71398941 140.71398941 140.71398941 140.71398941 140.71398941 140.71398941 140.71398941 140.71398941 140.71398941 140.73020558 140.75120756 140.77437792 140.78973514 140.79574373 140.79451873 140.78846917 140.78025178 140.77188135 140.76436979 140.75812929 140.75332616 140.74996338 140.74788898 140.74690810 140.74690810 140.74788898 140.74996338 140.75332616 140.75812929 140.76436979 140.77188135 140.78025178 140.78846917 140.79451873 140.79574373 140.78973514 140.77437792 140.75120756 140.73020558 140.71398941 140.71398941 140.71398941 140.71398941 140.71398941 140.71398941 140.71398941 140.71398941 140.71398941 140.71398941 140.71398941 140.71398941 140.74470447 140.76832729 140.78355393 140.79276834 140.79554610 140.79388145 140.78986496 140.78471532 140.77941213 140.77486761 140.77165727 140.76978664 140.76895651 140.76895651 140.76978664 140.77165727 140.77486761 140.77941213 140.78471532 140.78986496 140.79388145 140.79554610 140.79276834 140.78355393 140.76832729 140.74470447 140.71398941 140.71398941 140.71398941 140.71398941 140.71398941 140.71398941 140.71398941 140.71398941 140.71398941 140.71398941 140.71398941 140.71398941 140.71398941 140.71398941 140.71398941 140.73899526 140.75539218 140.77326415 140.78441856 140.79094664 140.79417088 140.79426992 140.79236883 140.79018410 140.78902634 140.78886315 140.78899745 140.78899745 140.78886315 140.78902634 140.79018410 140.79236883 140.79426992 140.79417088 140.79094664 140.78441856 140.77326415 140.75539218 140.73899526 140.71398941 140.71398941 140.71398941 140.71398941 140.71398941 140.71398941 140.71398941 140.71398941 140.71398941 140.71398941 140.71398941 140.71398941 140.71398941 140.71398941 140.71398941 140.71398941 140.71398941 140.71398941 140.74100183 140.75487476 140.76765218 140.77796538 140.78356076 140.78570379 140.78697535 140.78966201 140.79282269 140.79475642 140.79475642 140.79282269 140.78966201 140.78697535 140.78570379 140.78356076 140.77796538 140.76765218 140.75487476 140.74100183 140.71398941 140.71398941 140.71398941 140.71398941 140.71398941 140.71398941 140.71398941 140.71398941 140.71398941 140.71398941 140.71398941 140.71398941 140.71398941 140.71398941 140.71398941 140.71398941 140.71398941 140.71398941 140.71398941 140.71398941 140.71398941 140.71398941 140.73241792 140.74604827 140.75309987 140.75654166 140.75969370 140.76744987 140.77481993 140.77869742 140.77869742 140.77481993 140.76744987 140.75969370 140.75654166 140.75309987 140.74604827 140.73241792 140.71398941 140.71398941 140.71398941 140.71398941 140.71398941 140.71398941 140.71398941 140.71398941 140.71398941 140.71398941 140.71398941 140.71398941 140.71398941 140.71398941 140.71398941 140.71398941 140.71398941 140.71398941 140.71398941 140.71398941 140.71398941 140.71398941 140.71398941 140.71398941 140.71398941 140.71398941 140.71398941 140.71398941 140.71398941 140.73159899 140.74236322 140.74673173 140.74673173 140.74236322 140.73159899 140.71398941 140.71398941 140.71398941 140.71398941 140.71398941 140.71398941 140.71398941 140.71398941 140.71398941 140.71398941 140.71398941 140.71398941 140.71398941 140.71398941 140.71398941 140.71398941 140.71398941 140.71398941 140.71398941 140.71398941 140.71398941 140.71398941 140.71398941 140.71398941 140.71398941 140.71398941 140.71398941 140.71398941 140.71398941 140.71398941 140.71398941 140.71398941 140.71398941 140.71398941 140.71398941 140.71398941 140.71398941 140.71398941 140.71398941 140.71398941 140.71398941 140.71398941 140.71398941 140.71398941 140.71398941 140.71398941 140.71398941 140.71398941 140.71398941 140.71398941 140.71398941 140.71398941 140.71398941 140.71398941 140.71398941 140.71398941 140.71398941 140.71398941 140.71398941 140.71398941 140.71398941 140.71398941 140.71398941 140.71398941 140.71398941 140.71398941 140.71398941 140.71398941 140.71398941 140.71398941 140.71398941 140.71398941 140.71398941 140.71398941 140.71398941 140.71398941 140.71398941 140.71398941 140.71398941 140.71398941 140.71398941 140.71398941 140.71398941 140.71398941 140.71398941 140.71398941 140.71398941 140.71398941 140.71398941 140.71398941 140.71398941 140.71398941 140.71398941 140.71398941 140.71398941 140.71398941 140.71398941 140.71398941 140.71398941 140.71398941 140.71398941 140.71398941 140.71398941 140.71398941 140.71398941 140.71398941 140.71398941 140.71398941 140.71398941 140.71398941 140.71398941 140.71398941 140.71398941 140.71398941 140.71398941 140.71398941 140.71398941 140.71398941 140.71398941 140.71398941 140.71398941 140.71398941 140.71398941 140.71398941 140.71398941 140.71398941 140.71398941 140.71398941 140.71398941 140.71398941 140.71398941 140.71398941 140.71398941 140.71398941 140.71398941 140.71398941 140.71398941 140.71398941 140.71398941 140.71398941 140.71398941 140.71398941 140.71398941 140.71398941 140.71398941 140.71398941 140.71398941 140.71398941 140.71398941 140.71398941 140.71398941 140.71398941 140.71398941 140.71398941 140.71398941 140.71398941 140.71398941 140.71398941 140.71398941 140.71398941 140.71398941 140.71398941 140.71398941 140.71398941 140.71398941 140.71398941 140.71398941 140.71398941 140.71398941 140.71398941 140.71398941 140.71398941 140.71398941 140.71398941 140.71398941 140.71398941 140.71398941 140.71398941 140.71398941 140.71398941 140.71398941 140.71398941 140.71398941 140.71398941 140.71398941 140.71398941 140.71398941 140.71398941 140.71398941 140.71398941 140.71398941 140.71398941 140.71398941 140.71398941 140.71398941 140.71398941 140.71398941 140.71398941 140.71398941 140.71398941 140.71398941 140.71398941 140.71398941 140.71398941 140.71398941 140.71398941 140.71398941 140.71398941 140.71398941 140.71398941 140.71398941 140.71398941 140.71398941 140.71398941 140.71398941 140.71398941 140.71398941 140.71398941 140.71398941 140.71398941 140.71398941 140.71398941 140.71398941 140.71398941 140.71398941 140.71398941 140.71398941 140.71398941 140.71398941 140.71398941 140.71398941 140.71398941 140.71398941 140.71398941 140.71398941 140.71398941 140.71398941 140.71398941 140.71398941 140.71398941 140.71398941 140.71398941 140.71398941 140.71398941 140.71398941 140.71398941 140.71398941 140.71398941 140.71398941 140.71398941 140.71398941 140.71398941 140.71398941 140.71398941 140.71398941 140.71398941 140.71398941 140.71398941 140.71398941 140.71398941 140.71398941 140.71398941 140.71398941 140.71398941 140.71398941 140.71398941 140.71398941 140.71398941 140.71398941 140.71398941 140.71398941 140.71398941 140.71398941 140.71398941 140.71398941 140.71398941 140.71398941 140.71398941 140.71398941 140.71398941 140.71398941 140.71398941 140.71398941 140.71398941 140.71398941 140.71398941 140.71398941 140.71398941 140.71398941 140.71398941 140.71398941 140.71398941 140.71398941 140.71398941 140.71398941 140.71398941 140.71398941 140.71398941 140.71398941 140.71398941 140.71398941 140.71398941 140.71398941 140.71398941 140.71398941 140.71398941 140.71398941 140.71398941 140.71398941 140.71398941 140.71398941 140.71398941 140.71398941 140.71398941 140.71398941 140.71398941 140.71398941 140.71398941 140.71398941 140.71398941 140.71398941 140.71398941 140.71398941 140.71398941 140.71398941 140.71398941 140.71398941 140.71398941 140.71398941 140.71398941 140.71398941 140.71398941 140.71398941 140.71398941 140.71398941 140.71398941 140.71398941 