# vtk DataFile Version 3.0
VTK - Matlab export
ASCII
DATASET STRUCTURED_POINTS
DIMENSIONS 40 40 1
SPACING 1 1 1
ORIGIN 0 0 0
POINT_DATA 1600
SCALARS Temperature float 1
LOOKUP_TABLE default
200.00000000 200.00000000 200.00000000 200.00000000 200.00000000 200.00000000 200.00000000 200.00000000 200.00000000 200.00000000 200.00000000 200.00000000 200.00000000 200.00000000 200.00000000 200.00000000 200.00000000 200.00000000 200.00000000 200.00000000 200.00000000 200.00000000 200.00000000 200.00000000 200.00000000 200.00000000 200.00000000 200.00000000 200.00000000 200.00000000 200.00000000 200.00000000 200.00000000 200.00000000 200.00000000 200.00000000 200.00000000 200.00000000 200.00000000 200.00000000 200.00000000 200.00000000 200.00000000 200.00000000 200.00000000 200.00000000 200.00000000 200.00000000 200.00000000 200.00000000 200.00000000 200.00000000 200.00000000 200.00000000 200.00000000 200.00000000 200.00000000 200.00000000 200.00000000 200.00000000 200.00000000 200.00000000 200.00000000 200.00000000 200.00000000 200.00000000 200.00000000 200.00000000 200.00000000 200.00000000 200.00000000 200.00000000 200.00000000 200.00000000 200.00000000 200.00000000 200.00000000 200.00000000 200.00000000 200.00000000 200.00000000 200.00000000 200.00000000 200.00000000 200.00000000 200.00000000 200.00000000 200.00000000 200.00000000 200.00000000 200.00000000 200.00000000 200.00000000 200.00000000 200.00000000 200.00000000 200.00000000 200.00000000 200.00000000 200.00000000 200.00000000 200.00000000 200.00000000 200.00000000 200.00000000 200.00000000 200.00000000 200.00000000 200.00000000 200.00000000 200.00000000 200.00000000 200.00000000 200.00000000 200.00000000 200.00000000 200.00000000 200.00000000 200.00000000 200.00000000 200.00000000 200.00000000 200.00000000 200.00000000 200.00000000 200.00000000 200.00000000 200.00000000 200.00000000 200.00000000 200.00000000 200.00000000 200.00000000 200.00000000 200.00000000 200.00000000 200.00000000 200.00000000 200.00000000 200.00000000 200.00000000 200.00000000 200.00000000 200.00000000 200.00000000 200.00000000 200.00000000 200.00000000 200.00000000 200.00000000 200.00000000 200.00000000 200.00000000 200.00000000 200.00000000 200.00000000 200.00000000 200.00000000 200.00000000 200.00000000 200.00000000 200.00000000 200.00000000 200.00000000 200.00000000 200.00000000 200.00000000 200.00000000 200.00000000 200.00000000 200.00000000 200.00000000 200.00000000 200.00000000 200.00000000 200.00000000 200.00000000 200.00000000 200.00000000 200.00000000 200.00000000 200.00000000 200.00000000 200.00000000 200.00000000 200.00000000 200.00000000 200.00000000 200.00000000 200.00000000 200.00000000 200.00000000 200.00000000 200.00000000 200.00000000 200.00000000 200.00000000 200.00000000 200.00000000 200.00000000 200.00000000 200.00000000 200.00000000 200.00000000 200.00000000 200.00000000 200.00000000 200.00000000 200.00000000 200.00000000 200.00000000 200.00000000 200.00000000 200.00000000 200.00000000 200.00000000 200.00000000 200.00000000 200.00000000 200.00000000 200.00000000 200.00000000 200.00000000 200.00000000 200.00000000 200.00000000 200.00000000 200.00000000 200.00000000 200.00000000 200.00000000 200.00000000 200.00000000 200.00000000 200.00000000 200.00000000 200.00000000 200.00000000 200.00000000 200.00000000 200.00000000 200.00000000 200.00000000 200.00000000 200.00000000 200.00000000 200.00000000 200.00000000 200.00000000 200.00000000 200.00000000 200.00000000 200.00000000 200.00000000 200.00000000 200.00000000 200.00000000 200.00000000 200.00000000 200.00000000 200.00000000 200.00000000 200.00000000 200.00000000 200.00000000 200.00000000 200.00000000 200.00000000 200.00000000 200.00000000 200.00000000 200.00000000 200.00000000 200.00000000 200.00000000 200.00000000 200.00000000 200.00000000 200.00000000 200.00000000 200.00000000 200.00000000 200.00000000 200.00000000 200.00000000 200.00000000 200.00000000 200.00000000 200.00000000 200.00000000 200.00000000 200.00000000 200.00000000 200.00000000 200.00000000 200.00000000 200.00000000 200.00000000 200.00000000 200.00000000 200.00000000 200.00000000 200.00000000 200.00000000 200.00000000 200.00000000 200.00000000 200.00000000 200.00000000 200.00000000 200.00000000 200.00000000 200.00000000 200.00000000 200.00000000 200.00000000 200.00000000 200.00000000 200.00000000 200.00000000 200.00000000 200.00000000 200.00000000 200.00000000 200.00000000 200.00000000 200.00000000 200.00000000 200.00000000 200.00000000 200.00000000 200.00000000 200.00000000 200.00000000 200.00000000 200.00000000 200.00000000 228.31165460 243.59471532 249.20275101 249.20275101 243.59471532 228.31165460 200.00000000 200.00000000 200.00000000 200.00000000 200.00000000 200.00000000 200.00000000 200.00000000 200.00000000 200.00000000 200.00000000 200.00000000 200.00000000 200.00000000 200.00000000 200.00000000 200.00000000 200.00000000 200.00000000 200.00000000 200.00000000 200.00000000 200.00000000 200.00000000 200.00000000 200.00000000 200.00000000 200.00000000 200.00000000 228.73838509 250.67794459 264.37776311 273.83726826 282.49758612 296.25635531 307.36309096 312.72912552 312.72912552 307.36309096 296.25635531 282.49758612 273.83726826 264.37776311 250.67794459 228.73838509 200.00000000 200.00000000 200.00000000 200.00000000 200.00000000 200.00000000 200.00000000 200.00000000 200.00000000 200.00000000 200.00000000 200.00000000 200.00000000 200.00000000 200.00000000 200.00000000 200.00000000 200.00000000 200.00000000 200.00000000 200.00000000 200.00000000 241.56166733 265.88563124 291.11504082 314.68071881 333.22765183 347.49186711 359.25758302 370.19220091 378.66809854 383.08477057 383.08477057 378.66809854 370.19220091 359.25758302 347.49186711 333.22765183 314.68071881 291.11504082 265.88563124 241.56166733 200.00000000 200.00000000 200.00000000 200.00000000 200.00000000 200.00000000 200.00000000 200.00000000 200.00000000 200.00000000 200.00000000 200.00000000 200.00000000 200.00000000 200.00000000 200.00000000 200.00000000 200.00000000 237.50176852 265.95067576 300.77254911 330.94682307 358.19210790 382.44447535 402.52285516 418.52077948 431.23141750 441.32764805 448.52233214 452.24370704 452.24370704 448.52233214 441.32764805 431.23141750 418.52077948 402.52285516 382.44447535 358.19210790 330.94682307 300.77254911 265.95067576 237.50176852 200.00000000 200.00000000 200.00000000 200.00000000 200.00000000 200.00000000 200.00000000 200.00000000 200.00000000 200.00000000 200.00000000 200.00000000 200.00000000 200.00000000 200.00000000 246.64781585 288.38825832 326.10391831 362.43002556 394.88038050 423.21966718 447.46269331 467.42326223 483.31883988 495.66871516 504.92733824 511.19624966 514.36952751 514.36952751 511.19624966 504.92733824 495.66871516 483.31883988 467.42326223 447.46269331 423.21966718 394.88038050 362.43002556 326.10391831 288.38825832 246.64781585 200.00000000 200.00000000 200.00000000 200.00000000 200.00000000 200.00000000 200.00000000 200.00000000 200.00000000 200.00000000 200.00000000 200.00000000 221.84987261 254.57973007 298.72026063 342.82886270 384.02100534 421.57227730 454.43748484 482.36202698 505.51136238 524.17329573 538.79970603 549.92995930 558.02329728 563.34264682 565.98798377 565.98798377 563.34264682 558.02329728 549.92995930 538.79970603 524.17329573 505.51136238 482.36202698 454.43748484 421.57227730 384.02100534 342.82886270 298.72026063 254.57973007 221.84987261 200.00000000 200.00000000 200.00000000 200.00000000 200.00000000 200.00000000 200.00000000 200.00000000 200.00000000 200.00000000 252.67682666 300.28144095 348.52425656 394.91819194 437.40704184 474.86457388 506.70457033 532.95784545 554.06005221 570.61821944 583.29820419 592.73340800 599.43618907 603.75039734 605.86675283 605.86675283 603.75039734 599.43618907 592.73340800 583.29820419 570.61821944 554.06005221 532.95784545 506.70457033 474.86457388 437.40704184 394.91819194 348.52425656 300.28144095 252.67682666 200.00000000 200.00000000 200.00000000 200.00000000 200.00000000 200.00000000 200.00000000 200.00000000 200.00000000 240.93777733 290.99737513 342.74951227 393.70586862 441.33645074 483.76655331 520.00739382 549.83735030 573.63970212 592.15380783 606.24102437 616.73423824 624.34989658 629.64052753 632.98420950 634.60514010 634.60514010 632.98420950 629.64052753 624.34989658 616.73423824 606.24102437 592.15380783 573.63970212 549.83735030 520.00739382 483.76655331 441.33645074 393.70586862 342.74951227 290.99737513 240.93777733 200.00000000 200.00000000 200.00000000 200.00000000 200.00000000 200.00000000 200.00000000 228.64323851 272.86623047 325.09949842 379.43911464 431.98741792 479.91003984 521.42538566 555.80238583 583.18102122 604.29251590 620.15535665 631.82814429 640.25773392 646.20878330 650.24663689 652.75225377 653.95287390 653.95287390 652.75225377 650.24663689 646.20878330 640.25773392 631.82814429 620.15535665 604.29251590 583.18102122 555.80238583 521.42538566 479.91003984 431.98741792 379.43911464 325.09949842 272.86623047 228.64323851 200.00000000 200.00000000 200.00000000 200.00000000 200.00000000 200.00000000 244.70368047 295.92325660 351.74608002 408.23103473 461.69162621 509.35094421 549.60460956 582.00763661 607.03031460 625.70121328 639.26034837 648.90441178 655.64656071 660.26817857 663.32646585 665.18817549 666.06956580 666.06956580 665.18817549 663.32646585 660.26817857 655.64656071 648.90441178 639.26034837 625.70121328 607.03031460 582.00763661 549.60460956 509.35094421 461.69162621 408.23103473 351.74608002 295.92325660 244.70368047 200.00000000 200.00000000 200.00000000 200.00000000 200.00000000 200.00000000 254.94073085 311.30461203 369.95054514 427.93081073 481.85017672 529.07635775 568.19011953 598.98737800 622.19067479 639.04260532 650.93260167 659.14105629 664.71289356 668.42849461 670.82923956 672.26393022 672.93528323 672.93528323 672.26393022 670.82923956 668.42849461 664.71289356 659.14105629 650.93260167 639.04260532 622.19067479 598.98737800 568.19011953 529.07635775 481.85017672 427.93081073 369.95054514 311.30461203 254.94073085 200.00000000 200.00000000 200.00000000 200.00000000 200.00000000 216.21671603 263.21952232 319.66905073 379.29888652 437.93467227 492.01333610 538.93599869 577.38484248 607.29001837 629.50979615 645.39791516 656.41803643 663.88898993 668.86713507 672.12816862 674.20212063 675.42616702 675.99441068 675.99441068 675.42616702 674.20212063 672.12816862 668.86713507 663.88898993 656.41803643 645.39791516 629.50979615 607.29001837 577.38484248 538.93599869 492.01333610 437.93467227 379.29888652 319.66905073 263.21952232 216.21671603 200.00000000 200.00000000 200.00000000 200.00000000 216.21671603 263.21952232 319.66905073 379.29888652 437.93467227 492.01333610 538.93599869 577.38484248 607.29001837 629.50979615 645.39791516 656.41803643 663.88898993 668.86713507 672.12816862 674.20212063 675.42616702 675.99441068 675.99441068 675.42616702 674.20212063 672.12816862 668.86713507 663.88898993 656.41803643 645.39791516 629.50979615 607.29001837 577.38484248 538.93599869 492.01333610 437.93467227 379.29888652 319.66905073 263.21952232 216.21671603 200.00000000 200.00000000 200.00000000 200.00000000 200.00000000 254.94073085 311.30461203 369.95054514 427.93081073 481.85017672 529.07635775 568.19011953 598.98737800 622.19067479 639.04260532 650.93260167 659.14105629 664.71289356 668.42849461 670.82923956 672.26393022 672.93528323 672.93528323 672.26393022 670.82923956 668.42849461 664.71289356 659.14105629 650.93260167 639.04260532 622.19067479 598.98737800 568.19011953 529.07635775 481.85017672 427.93081073 369.95054514 311.30461203 254.94073085 200.00000000 200.00000000 200.00000000 200.00000000 200.00000000 200.00000000 244.70368047 295.92325660 351.74608002 408.23103473 461.69162621 509.35094421 549.60460956 582.00763661 607.03031460 625.70121328 639.26034837 648.90441178 655.64656071 660.26817857 663.32646585 665.18817549 666.06956580 666.06956580 665.18817549 663.32646585 660.26817857 655.64656071 648.90441178 639.26034837 625.70121328 607.03031460 582.00763661 549.60460956 509.35094421 461.69162621 408.23103473 351.74608002 295.92325660 244.70368047 200.00000000 200.00000000 200.00000000 200.00000000 200.00000000 200.00000000 228.64323851 272.86623047 325.09949842 379.43911464 431.98741792 479.91003984 521.42538566 555.80238583 583.18102122 604.29251590 620.15535665 631.82814429 640.25773392 646.20878330 650.24663689 652.75225377 653.95287390 653.95287390 652.75225377 650.24663689 646.20878330 640.25773392 631.82814429 620.15535665 604.29251590 583.18102122 555.80238583 521.42538566 479.91003984 431.98741792 379.43911464 325.09949842 272.86623047 228.64323851 200.00000000 200.00000000 200.00000000 200.00000000 200.00000000 200.00000000 200.00000000 240.93777733 290.99737513 342.74951227 393.70586862 441.33645074 483.76655331 520.00739382 549.83735030 573.63970212 592.15380783 606.24102437 616.73423824 624.34989658 629.64052753 632.98420950 634.60514010 634.60514010 632.98420950 629.64052753 624.34989658 616.73423824 606.24102437 592.15380783 573.63970212 549.83735030 520.00739382 483.76655331 441.33645074 393.70586862 342.74951227 290.99737513 240.93777733 200.00000000 200.00000000 200.00000000 200.00000000 200.00000000 200.00000000 200.00000000 200.00000000 200.00000000 252.67682666 300.28144095 348.52425656 394.91819194 437.40704184 474.86457388 506.70457033 532.95784545 554.06005221 570.61821944 583.29820419 592.73340800 599.43618907 603.75039734 605.86675283 605.86675283 603.75039734 599.43618907 592.73340800 583.29820419 570.61821944 554.06005221 532.95784545 506.70457033 474.86457388 437.40704184 394.91819194 348.52425656 300.28144095 252.67682666 200.00000000 200.00000000 200.00000000 200.00000000 200.00000000 200.00000000 200.00000000 200.00000000 200.00000000 200.00000000 221.84987261 254.57973007 298.72026063 342.82886270 384.02100534 421.57227730 454.43748484 482.36202698 505.51136238 524.17329573 538.79970603 549.92995930 558.02329728 563.34264682 565.98798377 565.98798377 563.34264682 558.02329728 549.92995930 538.79970603 524.17329573 505.51136238 482.36202698 454.43748484 421.57227730 384.02100534 342.82886270 298.72026063 254.57973007 221.84987261 200.00000000 200.00000000 200.00000000 200.00000000 200.00000000 200.00000000 200.00000000 200.00000000 200.00000000 200.00000000 200.00000000 200.00000000 246.64781585 288.38825832 326.10391831 362.43002556 394.88038050 423.21966718 447.46269331 467.42326223 483.31883988 495.66871516 504.92733824 511.19624966 514.36952751 514.36952751 511.19624966 504.92733824 495.66871516 483.31883988 467.42326223 447.46269331 423.21966718 394.88038050 362.43002556 326.10391831 288.38825832 246.64781585 200.00000000 200.00000000 200.00000000 200.00000000 200.00000000 200.00000000 200.00000000 200.00000000 200.00000000 200.00000000 200.00000000 200.00000000 200.00000000 200.00000000 200.00000000 237.50176852 265.95067576 300.77254911 330.94682307 358.19210790 382.44447535 402.52285516 418.52077948 431.23141750 441.32764805 448.52233214 452.24370704 452.24370704 448.52233214 441.32764805 431.23141750 418.52077948 402.52285516 382.44447535 358.19210790 330.94682307 300.77254911 265.95067576 237.50176852 200.00000000 200.00000000 200.00000000 200.00000000 200.00000000 200.00000000 200.00000000 200.00000000 200.00000000 200.00000000 200.00000000 200.00000000 200.00000000 200.00000000 200.00000000 200.00000000 200.00000000 200.00000000 241.56166733 265.88563124 291.11504082 314.68071881 333.22765183 347.49186711 359.25758302 370.19220091 378.66809854 383.08477057 383.08477057 378.66809854 370.19220091 359.25758302 347.49186711 333.22765183 314.68071881 291.11504082 265.88563124 241.56166733 200.00000000 200.00000000 200.00000000 200.00000000 200.00000000 200.00000000 200.00000000 200.00000000 200.00000000 200.00000000 200.00000000 200.00000000 200.00000000 200.00000000 200.00000000 200.00000000 200.00000000 200.00000000 200.00000000 200.00000000 200.00000000 200.00000000 228.73838509 250.67794459 264.37776311 273.83726826 282.49758612 296.25635531 307.36309096 312.72912552 312.72912552 307.36309096 296.25635531 282.49758612 273.83726826 264.37776311 250.67794459 228.73838509 200.00000000 200.00000000 200.00000000 200.00000000 200.00000000 200.00000000 200.00000000 200.00000000 200.00000000 200.00000000 200.00000000 200.00000000 200.00000000 200.00000000 200.00000000 200.00000000 200.00000000 200.00000000 200.00000000 200.00000000 200.00000000 200.00000000 200.00000000 200.00000000 200.00000000 200.00000000 200.00000000 200.00000000 200.00000000 228.31165460 243.59471532 249.20275101 249.20275101 243.59471532 228.31165460 200.00000000 200.00000000 200.00000000 200.00000000 200.00000000 200.00000000 200.00000000 200.00000000 200.00000000 200.00000000 200.00000000 200.00000000 200.00000000 200.00000000 200.00000000 200.00000000 200.00000000 200.00000000 200.00000000 200.00000000 200.00000000 200.00000000 200.00000000 200.00000000 200.00000000 200.00000000 200.00000000 200.00000000 200.00000000 200.00000000 200.00000000 200.00000000 200.00000000 200.00000000 200.00000000 200.00000000 200.00000000 200.00000000 200.00000000 200.00000000 200.00000000 200.00000000 200.00000000 200.00000000 200.00000000 200.00000000 200.00000000 200.00000000 200.00000000 200.00000000 200.00000000 200.00000000 200.00000000 200.00000000 200.00000000 200.00000000 200.00000000 200.00000000 200.00000000 200.00000000 200.00000000 200.00000000 200.00000000 200.00000000 200.00000000 200.00000000 200.00000000 200.00000000 200.00000000 200.00000000 200.00000000 200.00000000 200.00000000 200.00000000 200.00000000 200.00000000 200.00000000 200.00000000 200.00000000 200.00000000 200.00000000 200.00000000 200.00000000 200.00000000 200.00000000 200.00000000 200.00000000 200.00000000 200.00000000 200.00000000 200.00000000 200.00000000 200.00000000 200.00000000 200.00000000 200.00000000 200.00000000 200.00000000 200.00000000 200.00000000 200.00000000 200.00000000 200.00000000 200.00000000 200.00000000 200.00000000 200.00000000 200.00000000 200.00000000 200.00000000 200.00000000 200.00000000 200.00000000 200.00000000 200.00000000 200.00000000 200.00000000 200.00000000 200.00000000 200.00000000 200.00000000 200.00000000 200.00000000 200.00000000 200.00000000 200.00000000 200.00000000 200.00000000 200.00000000 200.00000000 200.00000000 200.00000000 200.00000000 200.00000000 200.00000000 200.00000000 200.00000000 200.00000000 200.00000000 200.00000000 200.00000000 200.00000000 200.00000000 200.00000000 200.00000000 200.00000000 200.00000000 200.00000000 200.00000000 200.00000000 200.00000000 200.00000000 200.00000000 200.00000000 200.00000000 200.00000000 200.00000000 200.00000000 200.00000000 200.00000000 200.00000000 200.00000000 200.00000000 200.00000000 200.00000000 200.00000000 200.00000000 200.00000000 200.00000000 200.00000000 200.00000000 200.00000000 200.00000000 200.00000000 200.00000000 200.00000000 200.00000000 200.00000000 200.00000000 200.00000000 200.00000000 200.00000000 200.00000000 200.00000000 200.00000000 200.00000000 200.00000000 200.00000000 200.00000000 200.00000000 200.00000000 200.00000000 200.00000000 200.00000000 200.00000000 200.00000000 200.00000000 200.00000000 200.00000000 200.00000000 200.00000000 200.00000000 200.00000000 200.00000000 200.00000000 200.00000000 200.00000000 200.00000000 200.00000000 200.00000000 200.00000000 200.00000000 200.00000000 200.00000000 200.00000000 200.00000000 200.00000000 200.00000000 200.00000000 200.00000000 200.00000000 200.00000000 200.00000000 200.00000000 200.00000000 200.00000000 200.00000000 200.00000000 200.00000000 200.00000000 200.00000000 200.00000000 200.00000000 200.00000000 200.00000000 200.00000000 200.00000000 200.00000000 200.00000000 200.00000000 200.00000000 200.00000000 200.00000000 200.00000000 200.00000000 200.00000000 200.00000000 200.00000000 200.00000000 200.00000000 200.00000000 200.00000000 200.00000000 200.00000000 200.00000000 200.00000000 200.00000000 200.00000000 200.00000000 200.00000000 200.00000000 200.00000000 200.00000000 200.00000000 200.00000000 200.00000000 200.00000000 200.00000000 200.00000000 200.00000000 200.00000000 200.00000000 200.00000000 200.00000000 200.00000000 200.00000000 200.00000000 200.00000000 200.00000000 200.00000000 200.00000000 200.00000000 200.00000000 200.00000000 200.00000000 200.00000000 200.00000000 200.00000000 200.00000000 200.00000000 200.00000000 200.00000000 200.00000000 200.00000000 200.00000000 200.00000000 200.00000000 200.00000000 200.00000000 200.00000000 200.00000000 200.00000000 200.00000000 200.00000000 200.00000000 200.00000000 200.00000000 200.00000000 200.00000000 200.00000000 200.00000000 200.00000000 200.00000000 200.00000000 200.00000000 200.00000000 200.00000000 200.00000000 200.00000000 200.00000000 200.00000000 200.00000000 200.00000000 200.00000000 200.00000000 200.00000000 200.00000000 200.00000000 200.00000000 200.00000000 200.00000000 200.00000000 200.00000000 200.00000000 200.00000000 200.00000000 200.00000000 