# vtk DataFile Version 3.0
VTK - Matlab export
ASCII
DATASET STRUCTURED_POINTS
DIMENSIONS 40 40 1
SPACING 1 1 1
ORIGIN 0 0 0
POINT_DATA 1600
SCALARS Temperature float 1
LOOKUP_TABLE default
200.00000000 200.00000000 200.00000000 200.00000000 200.00000000 200.00000000 200.00000000 200.00000000 200.00000000 200.00000000 200.00000000 200.00000000 200.00000000 200.00000000 200.00000000 200.00000000 200.00000000 200.00000000 200.00000000 200.00000000 200.00000000 200.00000000 200.00000000 200.00000000 200.00000000 200.00000000 200.00000000 200.00000000 200.00000000 200.00000000 200.00000000 200.00000000 200.00000000 200.00000000 200.00000000 200.00000000 200.00000000 200.00000000 200.00000000 200.00000000 200.00000000 200.00000000 200.00000000 200.00000000 200.00000000 200.00000000 200.00000000 200.00000000 200.00000000 200.00000000 200.00000000 200.00000000 200.00000000 200.00000000 200.00000000 200.00000000 200.00000000 200.00000000 200.00000000 200.00000000 200.00000000 200.00000000 200.00000000 200.00000000 200.00000000 200.00000000 200.00000000 200.00000000 200.00000000 200.00000000 200.00000000 200.00000000 200.00000000 200.00000000 200.00000000 200.00000000 200.00000000 200.00000000 200.00000000 200.00000000 200.00000000 200.00000000 200.00000000 200.00000000 200.00000000 200.00000000 200.00000000 200.00000000 200.00000000 200.00000000 200.00000000 200.00000000 200.00000000 200.00000000 200.00000000 200.00000000 200.00000000 200.00000000 200.00000000 200.00000000 200.00000000 200.00000000 200.00000000 200.00000000 200.00000000 200.00000000 200.00000000 200.00000000 200.00000000 200.00000000 200.00000000 200.00000000 200.00000000 200.00000000 200.00000000 200.00000000 200.00000000 200.00000000 200.00000000 200.00000000 200.00000000 200.00000000 200.00000000 200.00000000 200.00000000 200.00000000 200.00000000 200.00000000 200.00000000 200.00000000 200.00000000 200.00000000 200.00000000 200.00000000 200.00000000 200.00000000 200.00000000 200.00000000 200.00000000 200.00000000 200.00000000 200.00000000 200.00000000 200.00000000 200.00000000 200.00000000 200.00000000 200.00000000 200.00000000 200.00000000 200.00000000 200.00000000 200.00000000 200.00000000 200.00000000 200.00000000 200.00000000 200.00000000 200.00000000 200.00000000 200.00000000 200.00000000 200.00000000 200.00000000 200.00000000 200.00000000 200.00000000 200.00000000 200.00000000 200.00000000 200.00000000 200.00000000 200.00000000 200.00000000 200.00000000 200.00000000 200.00000000 200.00000000 200.00000000 200.00000000 200.00000000 200.00000000 200.00000000 200.00000000 200.00000000 200.00000000 200.00000000 200.00000000 200.00000000 200.00000000 200.00000000 200.00000000 200.00000000 200.00000000 200.00000000 200.00000000 200.00000000 200.00000000 200.00000000 200.00000000 200.00000000 200.00000000 200.00000000 200.00000000 200.00000000 200.00000000 200.00000000 200.00000000 200.00000000 200.00000000 200.00000000 200.00000000 200.00000000 200.00000000 200.00000000 200.00000000 200.00000000 200.00000000 200.00000000 200.00000000 200.00000000 200.00000000 200.00000000 200.00000000 200.00000000 200.00000000 200.00000000 200.00000000 200.00000000 200.00000000 200.00000000 200.00000000 200.00000000 200.00000000 200.00000000 200.00000000 200.00000000 200.00000000 200.00000000 200.00000000 200.00000000 200.00000000 200.00000000 200.00000000 200.00000000 200.00000000 200.00000000 200.00000000 200.00000000 200.00000000 200.00000000 200.00000000 200.00000000 200.00000000 200.00000000 200.00000000 200.00000000 200.00000000 200.00000000 200.00000000 200.00000000 200.00000000 200.00000000 200.00000000 200.00000000 200.00000000 200.00000000 200.00000000 200.00000000 200.00000000 200.00000000 200.00000000 200.00000000 200.00000000 200.00000000 200.00000000 200.00000000 200.00000000 200.00000000 200.00000000 200.00000000 200.00000000 200.00000000 200.00000000 200.00000000 200.00000000 200.00000000 200.00000000 200.00000000 200.00000000 200.00000000 200.00000000 200.00000000 200.00000000 200.00000000 200.00000000 200.00000000 200.00000000 200.00000000 200.00000000 200.00000000 200.00000000 200.00000000 200.00000000 200.00000000 200.00000000 200.00000000 200.00000000 200.00000000 200.00000000 200.00000000 200.00000000 200.00000000 200.00000000 200.00000000 200.00000000 200.00000000 200.00000000 200.00000000 200.00000000 200.00000000 200.00000000 200.00000000 200.00000000 200.00000000 200.00000000 200.00000000 200.00000000 200.00000000 200.00000000 200.00000000 200.00000000 200.00000000 200.00000000 200.00000000 200.00000000 200.00000000 217.19524652 226.42996753 229.81086397 229.81086397 226.42996753 217.19524652 200.00000000 200.00000000 200.00000000 200.00000000 200.00000000 200.00000000 200.00000000 200.00000000 200.00000000 200.00000000 200.00000000 200.00000000 200.00000000 200.00000000 200.00000000 200.00000000 200.00000000 200.00000000 200.00000000 200.00000000 200.00000000 200.00000000 200.00000000 200.00000000 200.00000000 200.00000000 200.00000000 200.00000000 200.00000000 216.99742103 230.16512609 238.62577263 244.67138461 250.25024072 258.81305496 265.66571944 268.97502716 268.97502716 265.66571944 258.81305496 250.25024072 244.67138461 238.62577263 230.16512609 216.99742103 200.00000000 200.00000000 200.00000000 200.00000000 200.00000000 200.00000000 200.00000000 200.00000000 200.00000000 200.00000000 200.00000000 200.00000000 200.00000000 200.00000000 200.00000000 200.00000000 200.00000000 200.00000000 200.00000000 200.00000000 200.00000000 200.00000000 224.08853020 238.59533468 253.99680178 268.71134988 280.68852900 290.23331321 298.24464793 305.57740245 311.18812350 314.10280145 314.10280145 311.18812350 305.57740245 298.24464793 290.23331321 280.68852900 268.71134988 253.99680178 238.59533468 224.08853020 200.00000000 200.00000000 200.00000000 200.00000000 200.00000000 200.00000000 200.00000000 200.00000000 200.00000000 200.00000000 200.00000000 200.00000000 200.00000000 200.00000000 200.00000000 200.00000000 200.00000000 200.00000000 221.16030199 237.72027371 258.48529608 277.19251606 294.74630555 310.94122813 324.90145041 336.47395403 345.91516531 353.44716638 358.78759801 361.54233890 361.54233890 358.78759801 353.44716638 345.91516531 336.47395403 324.90145041 310.94122813 294.74630555 277.19251606 258.48529608 237.72027371 221.16030199 200.00000000 200.00000000 200.00000000 200.00000000 200.00000000 200.00000000 200.00000000 200.00000000 200.00000000 200.00000000 200.00000000 200.00000000 200.00000000 200.00000000 200.00000000 225.88781881 249.78285211 272.34223485 295.06382686 316.44733035 336.15300693 353.90415265 369.28748651 382.13318409 392.48100416 400.39025522 405.78222867 408.51757317 408.51757317 405.78222867 400.39025522 392.48100416 382.13318409 369.28748651 353.90415265 336.15300693 316.44733035 295.06382686 272.34223485 249.78285211 225.88781881 200.00000000 200.00000000 200.00000000 200.00000000 200.00000000 200.00000000 200.00000000 200.00000000 200.00000000 200.00000000 200.00000000 200.00000000 211.67348481 229.60238595 254.55361869 280.64394425 306.45345145 331.52576660 355.04158030 376.49505448 395.55425141 411.96157494 425.60262720 436.48628013 444.65736374 450.12521307 452.86797530 452.86797530 450.12521307 444.65736374 436.48628013 425.60262720 411.96157494 395.55425141 376.49505448 355.04158030 331.52576660 306.45345145 280.64394425 254.55361869 229.60238595 211.67348481 200.00000000 200.00000000 200.00000000 200.00000000 200.00000000 200.00000000 200.00000000 200.00000000 200.00000000 200.00000000 227.96779865 254.17505513 282.12915284 310.78077874 339.07503840 366.19507564 391.40285167 414.17456264 434.18255388 451.24655689 465.31780399 476.44237209 484.70336156 490.17331273 492.89768328 492.89768328 490.17331273 484.70336156 476.44237209 465.31780399 451.24655689 434.18255388 414.17456264 391.40285167 366.19507564 339.07503840 310.78077874 282.12915284 254.17505513 227.96779865 200.00000000 200.00000000 200.00000000 200.00000000 200.00000000 200.00000000 200.00000000 200.00000000 200.00000000 221.22495831 247.97260564 276.99070788 307.50917554 338.45766297 368.77424727 397.54467061 424.03292348 447.72753618 468.33392788 485.73596420 499.95354555 511.09262830 519.29190128 524.67971717 527.34945019 527.34945019 524.67971717 519.29190128 511.09262830 499.95354555 485.73596420 468.33392788 447.72753618 424.03292348 397.54467061 368.77424727 338.45766297 307.50917554 276.99070788 247.97260564 221.22495831 200.00000000 200.00000000 200.00000000 200.00000000 200.00000000 200.00000000 200.00000000 214.54140124 237.49196910 265.69180702 296.83519535 329.46099536 362.30081753 394.21421091 424.23923964 451.63808288 475.92262886 496.84231794 514.34277083 528.51106238 539.51644662 547.55452339 552.80301092 555.39289214 555.39289214 552.80301092 547.55452339 539.51644662 528.51106238 514.34277083 496.84231794 475.92262886 451.63808288 424.23923964 394.21421091 362.30081753 329.46099536 296.83519535 265.69180702 237.49196910 214.54140124 200.00000000 200.00000000 200.00000000 200.00000000 200.00000000 200.00000000 222.59381571 249.15858355 279.56008367 312.58452660 346.89316399 381.18532311 414.28028388 445.19360771 473.19182254 497.81332759 518.85127752 536.30664538 550.32551630 561.13310811 568.97428553 574.06711381 576.57156528 576.57156528 574.06711381 568.97428553 561.13310811 550.32551630 536.30664538 518.85127752 497.81332759 473.19182254 445.19360771 414.28028388 381.18532311 346.89316399 312.58452660 279.56008367 249.15858355 222.59381571 200.00000000 200.00000000 200.00000000 200.00000000 200.00000000 200.00000000 227.69039290 256.92489421 289.07477534 323.48831836 358.97645804 394.25385573 428.12615610 459.60075848 487.95156194 512.73969020 533.79298723 551.15441711 565.01400297 575.63831374 583.30806801 588.26990248 590.70372903 590.70372903 588.26990248 583.30806801 575.63831374 565.01400297 551.15441711 533.79298723 512.73969020 487.95156194 459.60075848 428.12615610 394.25385573 358.97645804 323.48831836 289.07477534 256.92489421 227.69039290 200.00000000 200.00000000 200.00000000 200.00000000 200.00000000 208.09675360 231.78653301 261.13542568 293.97407003 329.07218684 365.15881487 400.93219011 435.18899519 466.93359435 495.44498302 520.29730512 541.33752867 558.63127853 572.39201678 582.90821352 590.47940128 595.36700978 597.76113091 597.76113091 595.36700978 590.47940128 582.90821352 572.39201678 558.63127853 541.33752867 520.29730512 495.44498302 466.93359435 435.18899519 400.93219011 365.15881487 329.07218684 293.97407003 261.13542568 231.78653301 208.09675360 200.00000000 200.00000000 200.00000000 200.00000000 208.09675360 231.78653301 261.13542568 293.97407003 329.07218684 365.15881487 400.93219011 435.18899519 466.93359435 495.44498302 520.29730512 541.33752867 558.63127853 572.39201678 582.90821352 590.47940128 595.36700978 597.76113091 597.76113091 595.36700978 590.47940128 582.90821352 572.39201678 558.63127853 541.33752867 520.29730512 495.44498302 466.93359435 435.18899519 400.93219011 365.15881487 329.07218684 293.97407003 261.13542568 231.78653301 208.09675360 200.00000000 200.00000000 200.00000000 200.00000000 200.00000000 227.69039290 256.92489421 289.07477534 323.48831836 358.97645804 394.25385573 428.12615610 459.60075848 487.95156194 512.73969020 533.79298723 551.15441711 565.01400297 575.63831374 583.30806801 588.26990248 590.70372903 590.70372903 588.26990248 583.30806801 575.63831374 565.01400297 551.15441711 533.79298723 512.73969020 487.95156194 459.60075848 428.12615610 394.25385573 358.97645804 323.48831836 289.07477534 256.92489421 227.69039290 200.00000000 200.00000000 200.00000000 200.00000000 200.00000000 200.00000000 222.59381571 249.15858355 279.56008367 312.58452660 346.89316399 381.18532311 414.28028388 445.19360771 473.19182254 497.81332759 518.85127752 536.30664538 550.32551630 561.13310811 568.97428553 574.06711381 576.57156528 576.57156528 574.06711381 568.97428553 561.13310811 550.32551630 536.30664538 518.85127752 497.81332759 473.19182254 445.19360771 414.28028388 381.18532311 346.89316399 312.58452660 279.56008367 249.15858355 222.59381571 200.00000000 200.00000000 200.00000000 200.00000000 200.00000000 200.00000000 214.54140124 237.49196910 265.69180702 296.83519535 329.46099536 362.30081753 394.21421091 424.23923964 451.63808288 475.92262886 496.84231794 514.34277083 528.51106238 539.51644662 547.55452339 552.80301092 555.39289214 555.39289214 552.80301092 547.55452339 539.51644662 528.51106238 514.34277083 496.84231794 475.92262886 451.63808288 424.23923964 394.21421091 362.30081753 329.46099536 296.83519535 265.69180702 237.49196910 214.54140124 200.00000000 200.00000000 200.00000000 200.00000000 200.00000000 200.00000000 200.00000000 221.22495831 247.97260564 276.99070788 307.50917554 338.45766297 368.77424727 397.54467061 424.03292348 447.72753618 468.33392788 485.73596420 499.95354555 511.09262830 519.29190128 524.67971717 527.34945019 527.34945019 524.67971717 519.29190128 511.09262830 499.95354555 485.73596420 468.33392788 447.72753618 424.03292348 397.54467061 368.77424727 338.45766297 307.50917554 276.99070788 247.97260564 221.22495831 200.00000000 200.00000000 200.00000000 200.00000000 200.00000000 200.00000000 200.00000000 200.00000000 200.00000000 227.96779865 254.17505513 282.12915284 310.78077874 339.07503840 366.19507564 391.40285167 414.17456264 434.18255388 451.24655689 465.31780399 476.44237209 484.70336156 490.17331273 492.89768328 492.89768328 490.17331273 484.70336156 476.44237209 465.31780399 451.24655689 434.18255388 414.17456264 391.40285167 366.19507564 339.07503840 310.78077874 282.12915284 254.17505513 227.96779865 200.00000000 200.00000000 200.00000000 200.00000000 200.00000000 200.00000000 200.00000000 200.00000000 200.00000000 200.00000000 211.67348481 229.60238595 254.55361869 280.64394425 306.45345145 331.52576660 355.04158030 376.49505448 395.55425141 411.96157494 425.60262720 436.48628013 444.65736374 450.12521307 452.86797530 452.86797530 450.12521307 444.65736374 436.48628013 425.60262720 411.96157494 395.55425141 376.49505448 355.04158030 331.52576660 306.45345145 280.64394425 254.55361869 229.60238595 211.67348481 200.00000000 200.00000000 200.00000000 200.00000000 200.00000000 200.00000000 200.00000000 200.00000000 200.00000000 200.00000000 200.00000000 200.00000000 225.88781881 249.78285211 272.34223485 295.06382686 316.44733035 336.15300693 353.90415265 369.28748651 382.13318409 392.48100416 400.39025522 405.78222867 408.51757317 408.51757317 405.78222867 400.39025522 392.48100416 382.13318409 369.28748651 353.90415265 336.15300693 316.44733035 295.06382686 272.34223485 249.78285211 225.88781881 200.00000000 200.00000000 200.00000000 200.00000000 200.00000000 200.00000000 200.00000000 200.00000000 200.00000000 200.00000000 200.00000000 200.00000000 200.00000000 200.00000000 200.00000000 221.16030199 237.72027371 258.48529608 277.19251606 294.74630555 310.94122813 324.90145041 336.47395403 345.91516531 353.44716638 358.78759801 361.54233890 361.54233890 358.78759801 353.44716638 345.91516531 336.47395403 324.90145041 310.94122813 294.74630555 277.19251606 258.48529608 237.72027371 221.16030199 200.00000000 200.00000000 200.00000000 200.00000000 200.00000000 200.00000000 200.00000000 200.00000000 200.00000000 200.00000000 200.00000000 200.00000000 200.00000000 200.00000000 200.00000000 200.00000000 200.00000000 200.00000000 224.08853020 238.59533468 253.99680178 268.71134988 280.68852900 290.23331321 298.24464793 305.57740245 311.18812350 314.10280145 314.10280145 311.18812350 305.57740245 298.24464793 290.23331321 280.68852900 268.71134988 253.99680178 238.59533468 224.08853020 200.00000000 200.00000000 200.00000000 200.00000000 200.00000000 200.00000000 200.00000000 200.00000000 200.00000000 200.00000000 200.00000000 200.00000000 200.00000000 200.00000000 200.00000000 200.00000000 200.00000000 200.00000000 200.00000000 200.00000000 200.00000000 200.00000000 216.99742103 230.16512609 238.62577263 244.67138461 250.25024072 258.81305496 265.66571944 268.97502716 268.97502716 265.66571944 258.81305496 250.25024072 244.67138461 238.62577263 230.16512609 216.99742103 200.00000000 200.00000000 200.00000000 200.00000000 200.00000000 200.00000000 200.00000000 200.00000000 200.00000000 200.00000000 200.00000000 200.00000000 200.00000000 200.00000000 200.00000000 200.00000000 200.00000000 200.00000000 200.00000000 200.00000000 200.00000000 200.00000000 200.00000000 200.00000000 200.00000000 200.00000000 200.00000000 200.00000000 200.00000000 217.19524652 226.42996753 229.81086397 229.81086397 226.42996753 217.19524652 200.00000000 200.00000000 200.00000000 200.00000000 200.00000000 200.00000000 200.00000000 200.00000000 200.00000000 200.00000000 200.00000000 200.00000000 200.00000000 200.00000000 200.00000000 200.00000000 200.00000000 200.00000000 200.00000000 200.00000000 200.00000000 200.00000000 200.00000000 200.00000000 200.00000000 200.00000000 200.00000000 200.00000000 200.00000000 200.00000000 200.00000000 200.00000000 200.00000000 200.00000000 200.00000000 200.00000000 200.00000000 200.00000000 200.00000000 200.00000000 200.00000000 200.00000000 200.00000000 200.00000000 200.00000000 200.00000000 200.00000000 200.00000000 200.00000000 200.00000000 200.00000000 200.00000000 200.00000000 200.00000000 200.00000000 200.00000000 200.00000000 200.00000000 200.00000000 200.00000000 200.00000000 200.00000000 200.00000000 200.00000000 200.00000000 200.00000000 200.00000000 200.00000000 200.00000000 200.00000000 200.00000000 200.00000000 200.00000000 200.00000000 200.00000000 200.00000000 200.00000000 200.00000000 200.00000000 200.00000000 200.00000000 200.00000000 200.00000000 200.00000000 200.00000000 200.00000000 200.00000000 200.00000000 200.00000000 200.00000000 200.00000000 200.00000000 200.00000000 200.00000000 200.00000000 200.00000000 200.00000000 200.00000000 200.00000000 200.00000000 200.00000000 200.00000000 200.00000000 200.00000000 200.00000000 200.00000000 200.00000000 200.00000000 200.00000000 200.00000000 200.00000000 200.00000000 200.00000000 200.00000000 200.00000000 200.00000000 200.00000000 200.00000000 200.00000000 200.00000000 200.00000000 200.00000000 200.00000000 200.00000000 200.00000000 200.00000000 200.00000000 200.00000000 200.00000000 200.00000000 200.00000000 200.00000000 200.00000000 200.00000000 200.00000000 200.00000000 200.00000000 200.00000000 200.00000000 200.00000000 200.00000000 200.00000000 200.00000000 200.00000000 200.00000000 200.00000000 200.00000000 200.00000000 200.00000000 200.00000000 200.00000000 200.00000000 200.00000000 200.00000000 200.00000000 200.00000000 200.00000000 200.00000000 200.00000000 200.00000000 200.00000000 200.00000000 200.00000000 200.00000000 200.00000000 200.00000000 200.00000000 200.00000000 200.00000000 200.00000000 200.00000000 200.00000000 200.00000000 200.00000000 200.00000000 200.00000000 200.00000000 200.00000000 200.00000000 200.00000000 200.00000000 200.00000000 200.00000000 200.00000000 200.00000000 200.00000000 200.00000000 200.00000000 200.00000000 200.00000000 200.00000000 200.00000000 200.00000000 200.00000000 200.00000000 200.00000000 200.00000000 200.00000000 200.00000000 200.00000000 200.00000000 200.00000000 200.00000000 200.00000000 200.00000000 200.00000000 200.00000000 200.00000000 200.00000000 200.00000000 200.00000000 200.00000000 200.00000000 200.00000000 200.00000000 200.00000000 200.00000000 200.00000000 200.00000000 200.00000000 200.00000000 200.00000000 200.00000000 200.00000000 200.00000000 200.00000000 200.00000000 200.00000000 200.00000000 200.00000000 200.00000000 200.00000000 200.00000000 200.00000000 200.00000000 200.00000000 200.00000000 200.00000000 200.00000000 200.00000000 200.00000000 200.00000000 200.00000000 200.00000000 200.00000000 200.00000000 200.00000000 200.00000000 200.00000000 200.00000000 200.00000000 200.00000000 200.00000000 200.00000000 200.00000000 200.00000000 200.00000000 200.00000000 200.00000000 200.00000000 200.00000000 200.00000000 200.00000000 200.00000000 200.00000000 200.00000000 200.00000000 200.00000000 200.00000000 200.00000000 200.00000000 200.00000000 200.00000000 200.00000000 200.00000000 200.00000000 200.00000000 200.00000000 200.00000000 200.00000000 200.00000000 200.00000000 200.00000000 200.00000000 200.00000000 200.00000000 200.00000000 200.00000000 200.00000000 200.00000000 200.00000000 200.00000000 200.00000000 200.00000000 200.00000000 200.00000000 200.00000000 200.00000000 200.00000000 200.00000000 200.00000000 200.00000000 200.00000000 200.00000000 200.00000000 200.00000000 200.00000000 200.00000000 200.00000000 200.00000000 200.00000000 200.00000000 200.00000000 200.00000000 200.00000000 200.00000000 200.00000000 200.00000000 200.00000000 200.00000000 200.00000000 200.00000000 200.00000000 200.00000000 200.00000000 200.00000000 200.00000000 200.00000000 200.00000000 200.00000000 200.00000000 200.00000000 200.00000000 200.00000000 200.00000000 200.00000000 200.00000000 