# vtk DataFile Version 3.0
VTK - Matlab export
ASCII
DATASET STRUCTURED_POINTS
DIMENSIONS 40 40 1
SPACING 1 1 1
ORIGIN 0 0 0
POINT_DATA 1600
SCALARS Proofstrength float 1
LOOKUP_TABLE default
140.71398941 140.71398941 140.71398941 140.71398941 140.71398941 140.71398941 140.71398941 140.71398941 140.71398941 140.71398941 140.71398941 140.71398941 140.71398941 140.71398941 140.71398941 140.71398941 140.71398941 140.71398941 140.71398941 140.71398941 140.71398941 140.71398941 140.71398941 140.71398941 140.71398941 140.71398941 140.71398941 140.71398941 140.71398941 140.71398941 140.71398941 140.71398941 140.71398941 140.71398941 140.71398941 140.71398941 140.71398941 140.71398941 140.71398941 140.71398941 140.71398941 140.71398941 140.71398941 140.71398941 140.71398941 140.71398941 140.71398941 140.71398941 140.71398941 140.71398941 140.71398941 140.71398941 140.71398941 140.71398941 140.71398941 140.71398941 140.71398941 140.71398941 140.71398941 140.71398941 140.71398941 140.71398941 140.71398941 140.71398941 140.71398941 140.71398941 140.71398941 140.71398941 140.71398941 140.71398941 140.71398941 140.71398941 140.71398941 140.71398941 140.71398941 140.71398941 140.71398941 140.71398941 140.71398941 140.71398941 140.71398941 140.71398941 140.71398941 140.71398941 140.71398941 140.71398941 140.71398941 140.71398941 140.71398941 140.71398941 140.71398941 140.71398941 140.71398941 140.71398941 140.71398941 140.71398941 140.71398941 140.71398941 140.71398941 140.71398941 140.71398941 140.71398941 140.71398941 140.71398941 140.71398941 140.71398941 140.71398941 140.71398941 140.71398941 140.71398941 140.71398941 140.71398941 140.71398941 140.71398941 140.71398941 140.71398941 140.71398941 140.71398941 140.71398941 140.71398941 140.71398941 140.71398941 140.71398941 140.71398941 140.71398941 140.71398941 140.71398941 140.71398941 140.71398941 140.71398941 140.71398941 140.71398941 140.71398941 140.71398941 140.71398941 140.71398941 140.71398941 140.71398941 140.71398941 140.71398941 140.71398941 140.71398941 140.71398941 140.71398941 140.71398941 140.71398941 140.71398941 140.71398941 140.71398941 140.71398941 140.71398941 140.71398941 140.71398941 140.71398941 140.71398941 140.71398941 140.71398941 140.71398941 140.71398941 140.71398941 140.71398941 140.71398941 140.71398941 140.71398941 140.71398941 140.71398941 140.71398941 140.71398941 140.71398941 140.71398941 140.71398941 140.71398941 140.71398941 140.71398941 140.71398941 140.71398941 140.71398941 140.71398941 140.71398941 140.71398941 140.71398941 140.71398941 140.71398941 140.71398941 140.71398941 140.71398941 140.71398941 140.71398941 140.71398941 140.71398941 140.71398941 140.71398941 140.71398941 140.71398941 140.71398941 140.71398941 140.71398941 140.71398941 140.71398941 140.71398941 140.71398941 140.71398941 140.71398941 140.71398941 140.71398941 140.71398941 140.71398941 140.71398941 140.71398941 140.71398941 140.71398941 140.71398941 140.71398941 140.71398941 140.71398941 140.71398941 140.71398941 140.71398941 140.71398941 140.71398941 140.71398941 140.71398941 140.71398941 140.71398941 140.71398941 140.71398941 140.71398941 140.71398941 140.71398941 140.71398941 140.71398941 140.71398941 140.71398941 140.71398941 140.71398941 140.71398941 140.71398941 140.71398941 140.71398941 140.71398941 140.71398941 140.71398941 140.71398941 140.71398941 140.71398941 140.71398941 140.71398941 140.71398941 140.71398941 140.71398941 140.71398941 140.71398941 140.71398941 140.71398941 140.71398941 140.71398941 140.71398941 140.71398941 140.71398941 140.71398941 140.71398941 140.71398941 140.71398941 140.71398941 140.71398941 140.71398941 140.71398941 140.71398941 140.71398941 140.71398941 140.71398941 140.71398941 140.71398941 140.71398941 140.71398941 140.71398941 140.71398941 140.71398941 140.71398941 140.71398941 140.71398941 140.71398941 140.71398941 140.71398941 140.71398941 140.71398941 140.71398941 140.71398941 140.71398941 140.71398941 140.71398941 140.71398941 140.71398941 140.71398941 140.71398941 140.71398941 140.71398941 140.71398941 140.71398941 140.71398941 140.71398941 140.71398941 140.71398941 140.71398941 140.71398941 140.71398941 140.71398941 140.71398941 140.71398941 140.71398941 140.71398941 140.71398941 140.71398941 140.71398941 140.71398941 140.71398941 140.71398941 140.71398941 140.71398941 140.71398941 140.71398941 140.71398941 140.71398941 140.71398941 140.71398941 140.71398941 140.71398941 140.71398941 140.71398941 140.71398941 140.71398941 140.71398941 140.71398941 140.71398941 140.71398941 140.71398941 140.71398941 140.71895717 140.72170141 140.72272334 140.72272334 140.72170141 140.71895717 140.71398941 140.71398941 140.71398941 140.71398941 140.71398941 140.71398941 140.71398941 140.71398941 140.71398941 140.71398941 140.71398941 140.71398941 140.71398941 140.71398941 140.71398941 140.71398941 140.71398941 140.71398941 140.71398941 140.71398941 140.71398941 140.71398941 140.71398941 140.71398941 140.71398941 140.71398941 140.71398941 140.71398941 140.71398941 140.71923503 140.72314568 140.72543391 140.72687619 140.72817650 140.73046789 140.73237674 140.73330705 140.73330705 140.73237674 140.73046789 140.72817650 140.72687619 140.72543391 140.72314568 140.71923503 140.71398941 140.71398941 140.71398941 140.71398941 140.71398941 140.71398941 140.71398941 140.71398941 140.71398941 140.71398941 140.71398941 140.71398941 140.71398941 140.71398941 140.71398941 140.71398941 140.71398941 140.71398941 140.71398941 140.71398941 140.71398941 140.71398941 140.72178178 140.72609519 140.73035732 140.73413166 140.73683071 140.73867711 140.74011700 140.74155657 140.74273975 140.74336834 140.74336834 140.74273975 140.74155657 140.74011700 140.73867711 140.73683071 140.73413166 140.73035732 140.72609519 140.72178178 140.71398941 140.71398941 140.71398941 140.71398941 140.71398941 140.71398941 140.71398941 140.71398941 140.71398941 140.71398941 140.71398941 140.71398941 140.71398941 140.71398941 140.71398941 140.71398941 140.71398941 140.71398941 140.72129282 140.72649887 140.73256543 140.73733259 140.74119367 140.74425651 140.74642353 140.74785457 140.74884354 140.74963202 140.75022991 140.75055052 140.75055052 140.75022991 140.74963202 140.74884354 140.74785457 140.74642353 140.74425651 140.74119367 140.73733259 140.73256543 140.72649887 140.72129282 140.71398941 140.71398941 140.71398941 140.71398941 140.71398941 140.71398941 140.71398941 140.71398941 140.71398941 140.71398941 140.71398941 140.71398941 140.71398941 140.71398941 140.71398941 140.72327001 140.73105407 140.73737538 140.74276508 140.74682716 140.74969068 140.75157471 140.75265380 140.75316000 140.75335200 140.75343142 140.75348276 140.75351229 140.75351229 140.75348276 140.75343142 140.75335200 140.75316000 140.75265380 140.75157471 140.74969068 140.74682716 140.74276508 140.73737538 140.73105407 140.72327001 140.71398941 140.71398941 140.71398941 140.71398941 140.71398941 140.71398941 140.71398941 140.71398941 140.71398941 140.71398941 140.71398941 140.71398941 140.71864864 140.72526249 140.73356707 140.74094373 140.74672978 140.75090194 140.75350170 140.75479425 140.75512921 140.75483358 140.75420308 140.75348723 140.75286286 140.75242291 140.75219959 140.75219959 140.75242291 140.75286286 140.75348723 140.75420308 140.75483358 140.75512921 140.75479425 140.75350170 140.75090194 140.74672978 140.74094373 140.73356707 140.72526249 140.71864864 140.71398941 140.71398941 140.71398941 140.71398941 140.71398941 140.71398941 140.71398941 140.71398941 140.71398941 140.71398941 140.72528940 140.73466159 140.74294563 140.74945538 140.75385183 140.75621901 140.75688060 140.75630457 140.75497469 140.75330101 140.75159590 140.75007718 140.74887793 140.74806290 140.74765361 140.74765361 140.74806290 140.74887793 140.75007718 140.75159590 140.75330101 140.75497469 140.75630457 140.75688060 140.75621901 140.75385183 140.74945538 140.74294563 140.73466159 140.72528940 140.71398941 140.71398941 140.71398941 140.71398941 140.71398941 140.71398941 140.71398941 140.71398941 140.71398941 140.72317257 140.73363869 140.74315508 140.75077511 140.75589464 140.75840922 140.75866118 140.75724815 140.75483394 140.75200244 140.74918584 140.74666146 140.74458280 140.74301746 140.74198149 140.74146796 140.74146796 140.74198149 140.74301746 140.74458280 140.74666146 140.74918584 140.75200244 140.75483394 140.75724815 140.75866118 140.75840922 140.75589464 140.75077511 140.74315508 140.73363869 140.72317257 140.71398941 140.71398941 140.71398941 140.71398941 140.71398941 140.71398941 140.71398941 140.72068752 140.73051105 140.74099414 140.75012996 140.75668750 140.76014110 140.76063469 140.75880287 140.75549707 140.75153591 140.74755210 140.74394816 140.74092858 140.73856205 140.73684139 140.73572852 140.73518393 140.73518393 140.73572852 140.73684139 140.73856205 140.74092858 140.74394816 140.74755210 140.75153591 140.75549707 140.75880287 140.76063469 140.76014110 140.75668750 140.75012996 140.74099414 140.73051105 140.72068752 140.71398941 140.71398941 140.71398941 140.71398941 140.71398941 140.71398941 140.72450371 140.73580414 140.74658817 140.75525113 140.76067719 140.76252273 140.76119623 140.75760472 140.75280566 140.74771888 140.74298072 140.73893395 140.73569689 140.73325332 140.73152753 140.73043408 140.72990547 140.72990547 140.73043408 140.73152753 140.73325332 140.73569689 140.73893395 140.74298072 140.74771888 140.75280566 140.75760472 140.76119623 140.76252273 140.76067719 140.75525113 140.74658817 140.73580414 140.72450371 140.71398941 140.71398941 140.71398941 140.71398941 140.71398941 140.71398941 140.72694626 140.73929929 140.75029083 140.75852439 140.76302039 140.76361448 140.76093607 140.75609946 140.75030268 140.74451909 140.73936563 140.73512360 140.73183757 140.72942476 140.72775891 140.72672105 140.72622448 140.72622448 140.72672105 140.72775891 140.72942476 140.73183757 140.73512360 140.73936563 140.74451909 140.75030268 140.75609946 140.76093607 140.76361448 140.76302039 140.75852439 140.75029083 140.73929929 140.72694626 140.71398941 140.71398941 140.71398941 140.71398941 140.71398941 140.71789311 140.72894843 140.74119909 140.75215291 140.76010503 140.76407440 140.76398702 140.76059368 140.75511907 140.74883103 140.74272384 140.73739681 140.73309333 140.72981610 140.72744628 140.72583119 140.72483489 140.72436116 140.72436116 140.72483489 140.72583119 140.72744628 140.72981610 140.73309333 140.73739681 140.74272384 140.74883103 140.75511907 140.76059368 140.76398702 140.76407440 140.76010503 140.75215291 140.74119909 140.72894843 140.71789311 140.71398941 140.71398941 140.71398941 140.71398941 140.71789311 140.72894843 140.74119909 140.75215291 140.76010503 140.76407440 140.76398702 140.76059368 140.75511907 140.74883103 140.74272384 140.73739681 140.73309333 140.72981610 140.72744628 140.72583119 140.72483489 140.72436116 140.72436116 140.72483489 140.72583119 140.72744628 140.72981610 140.73309333 140.73739681 140.74272384 140.74883103 140.75511907 140.76059368 140.76398702 140.76407440 140.76010503 140.75215291 140.74119909 140.72894843 140.71789311 140.71398941 140.71398941 140.71398941 140.71398941 140.71398941 140.72694626 140.73929929 140.75029083 140.75852439 140.76302039 140.76361448 140.76093607 140.75609946 140.75030268 140.74451909 140.73936563 140.73512360 140.73183757 140.72942476 140.72775891 140.72672105 140.72622448 140.72622448 140.72672105 140.72775891 140.72942476 140.73183757 140.73512360 140.73936563 140.74451909 140.75030268 140.75609946 140.76093607 140.76361448 140.76302039 140.75852439 140.75029083 140.73929929 140.72694626 140.71398941 140.71398941 140.71398941 140.71398941 140.71398941 140.71398941 140.72450371 140.73580414 140.74658817 140.75525113 140.76067719 140.76252273 140.76119623 140.75760472 140.75280566 140.74771888 140.74298072 140.73893395 140.73569689 140.73325332 140.73152753 140.73043408 140.72990547 140.72990547 140.73043408 140.73152753 140.73325332 140.73569689 140.73893395 140.74298072 140.74771888 140.75280566 140.75760472 140.76119623 140.76252273 140.76067719 140.75525113 140.74658817 140.73580414 140.72450371 140.71398941 140.71398941 140.71398941 140.71398941 140.71398941 140.71398941 140.72068752 140.73051105 140.74099414 140.75012996 140.75668750 140.76014110 140.76063469 140.75880287 140.75549707 140.75153591 140.74755210 140.74394816 140.74092858 140.73856205 140.73684139 140.73572852 140.73518393 140.73518393 140.73572852 140.73684139 140.73856205 140.74092858 140.74394816 140.74755210 140.75153591 140.75549707 140.75880287 140.76063469 140.76014110 140.75668750 140.75012996 140.74099414 140.73051105 140.72068752 140.71398941 140.71398941 140.71398941 140.71398941 140.71398941 140.71398941 140.71398941 140.72317257 140.73363869 140.74315508 140.75077511 140.75589464 140.75840922 140.75866118 140.75724815 140.75483394 140.75200244 140.74918584 140.74666146 140.74458280 140.74301746 140.74198149 140.74146796 140.74146796 140.74198149 140.74301746 140.74458280 140.74666146 140.74918584 140.75200244 140.75483394 140.75724815 140.75866118 140.75840922 140.75589464 140.75077511 140.74315508 140.73363869 140.72317257 140.71398941 140.71398941 140.71398941 140.71398941 140.71398941 140.71398941 140.71398941 140.71398941 140.71398941 140.72528940 140.73466159 140.74294563 140.74945538 140.75385183 140.75621901 140.75688060 140.75630457 140.75497469 140.75330101 140.75159590 140.75007718 140.74887793 140.74806290 140.74765361 140.74765361 140.74806290 140.74887793 140.75007718 140.75159590 140.75330101 140.75497469 140.75630457 140.75688060 140.75621901 140.75385183 140.74945538 140.74294563 140.73466159 140.72528940 140.71398941 140.71398941 140.71398941 140.71398941 140.71398941 140.71398941 140.71398941 140.71398941 140.71398941 140.71398941 140.71864864 140.72526249 140.73356707 140.74094373 140.74672978 140.75090194 140.75350170 140.75479425 140.75512921 140.75483358 140.75420308 140.75348723 140.75286286 140.75242291 140.75219959 140.75219959 140.75242291 140.75286286 140.75348723 140.75420308 140.75483358 140.75512921 140.75479425 140.75350170 140.75090194 140.74672978 140.74094373 140.73356707 140.72526249 140.71864864 140.71398941 140.71398941 140.71398941 140.71398941 140.71398941 140.71398941 140.71398941 140.71398941 140.71398941 140.71398941 140.71398941 140.71398941 140.72327001 140.73105407 140.73737538 140.74276508 140.74682716 140.74969068 140.75157471 140.75265380 140.75316000 140.75335200 140.75343142 140.75348276 140.75351229 140.75351229 140.75348276 140.75343142 140.75335200 140.75316000 140.75265380 140.75157471 140.74969068 140.74682716 140.74276508 140.73737538 140.73105407 140.72327001 140.71398941 140.71398941 140.71398941 140.71398941 140.71398941 140.71398941 140.71398941 140.71398941 140.71398941 140.71398941 140.71398941 140.71398941 140.71398941 140.71398941 140.71398941 140.72129282 140.72649887 140.73256543 140.73733259 140.74119367 140.74425651 140.74642353 140.74785457 140.74884354 140.74963202 140.75022991 140.75055052 140.75055052 140.75022991 140.74963202 140.74884354 140.74785457 140.74642353 140.74425651 140.74119367 140.73733259 140.73256543 140.72649887 140.72129282 140.71398941 140.71398941 140.71398941 140.71398941 140.71398941 140.71398941 140.71398941 140.71398941 140.71398941 140.71398941 140.71398941 140.71398941 140.71398941 140.71398941 140.71398941 140.71398941 140.71398941 140.71398941 140.72178178 140.72609519 140.73035732 140.73413166 140.73683071 140.73867711 140.74011700 140.74155657 140.74273975 140.74336834 140.74336834 140.74273975 140.74155657 140.74011700 140.73867711 140.73683071 140.73413166 140.73035732 140.72609519 140.72178178 140.71398941 140.71398941 140.71398941 140.71398941 140.71398941 140.71398941 140.71398941 140.71398941 140.71398941 140.71398941 140.71398941 140.71398941 140.71398941 140.71398941 140.71398941 140.71398941 140.71398941 140.71398941 140.71398941 140.71398941 140.71398941 140.71398941 140.71923503 140.72314568 140.72543391 140.72687619 140.72817650 140.73046789 140.73237674 140.73330705 140.73330705 140.73237674 140.73046789 140.72817650 140.72687619 140.72543391 140.72314568 140.71923503 140.71398941 140.71398941 140.71398941 140.71398941 140.71398941 140.71398941 140.71398941 140.71398941 140.71398941 140.71398941 140.71398941 140.71398941 140.71398941 140.71398941 140.71398941 140.71398941 140.71398941 140.71398941 140.71398941 140.71398941 140.71398941 140.71398941 140.71398941 140.71398941 140.71398941 140.71398941 140.71398941 140.71398941 140.71398941 140.71895717 140.72170141 140.72272334 140.72272334 140.72170141 140.71895717 140.71398941 140.71398941 140.71398941 140.71398941 140.71398941 140.71398941 140.71398941 140.71398941 140.71398941 140.71398941 140.71398941 140.71398941 140.71398941 140.71398941 140.71398941 140.71398941 140.71398941 140.71398941 140.71398941 140.71398941 140.71398941 140.71398941 140.71398941 140.71398941 140.71398941 140.71398941 140.71398941 140.71398941 140.71398941 140.71398941 140.71398941 140.71398941 140.71398941 140.71398941 140.71398941 140.71398941 140.71398941 140.71398941 140.71398941 140.71398941 140.71398941 140.71398941 140.71398941 140.71398941 140.71398941 140.71398941 140.71398941 140.71398941 140.71398941 140.71398941 140.71398941 140.71398941 140.71398941 140.71398941 140.71398941 140.71398941 140.71398941 140.71398941 140.71398941 140.71398941 140.71398941 140.71398941 140.71398941 140.71398941 140.71398941 140.71398941 140.71398941 140.71398941 140.71398941 140.71398941 140.71398941 140.71398941 140.71398941 140.71398941 140.71398941 140.71398941 140.71398941 140.71398941 140.71398941 140.71398941 140.71398941 140.71398941 140.71398941 140.71398941 140.71398941 140.71398941 140.71398941 140.71398941 140.71398941 140.71398941 140.71398941 140.71398941 140.71398941 140.71398941 140.71398941 140.71398941 140.71398941 140.71398941 140.71398941 140.71398941 140.71398941 140.71398941 140.71398941 140.71398941 140.71398941 140.71398941 140.71398941 140.71398941 140.71398941 140.71398941 140.71398941 140.71398941 140.71398941 140.71398941 140.71398941 140.71398941 140.71398941 140.71398941 140.71398941 140.71398941 140.71398941 140.71398941 140.71398941 140.71398941 140.71398941 140.71398941 140.71398941 140.71398941 140.71398941 140.71398941 140.71398941 140.71398941 140.71398941 140.71398941 140.71398941 140.71398941 140.71398941 140.71398941 140.71398941 140.71398941 140.71398941 140.71398941 140.71398941 140.71398941 140.71398941 140.71398941 140.71398941 140.71398941 140.71398941 140.71398941 140.71398941 140.71398941 140.71398941 140.71398941 140.71398941 140.71398941 140.71398941 140.71398941 140.71398941 140.71398941 140.71398941 140.71398941 140.71398941 140.71398941 140.71398941 140.71398941 140.71398941 140.71398941 140.71398941 140.71398941 140.71398941 140.71398941 140.71398941 140.71398941 140.71398941 140.71398941 140.71398941 140.71398941 140.71398941 140.71398941 140.71398941 140.71398941 140.71398941 140.71398941 140.71398941 140.71398941 140.71398941 140.71398941 140.71398941 140.71398941 140.71398941 140.71398941 140.71398941 140.71398941 140.71398941 140.71398941 140.71398941 140.71398941 140.71398941 140.71398941 140.71398941 140.71398941 140.71398941 140.71398941 140.71398941 140.71398941 140.71398941 140.71398941 140.71398941 140.71398941 140.71398941 140.71398941 140.71398941 140.71398941 140.71398941 140.71398941 140.71398941 140.71398941 140.71398941 140.71398941 140.71398941 140.71398941 140.71398941 140.71398941 140.71398941 140.71398941 140.71398941 140.71398941 140.71398941 140.71398941 140.71398941 140.71398941 140.71398941 140.71398941 140.71398941 140.71398941 140.71398941 140.71398941 140.71398941 140.71398941 140.71398941 140.71398941 140.71398941 140.71398941 140.71398941 140.71398941 140.71398941 140.71398941 140.71398941 140.71398941 140.71398941 140.71398941 140.71398941 140.71398941 140.71398941 140.71398941 140.71398941 140.71398941 140.71398941 140.71398941 140.71398941 140.71398941 140.71398941 140.71398941 140.71398941 140.71398941 140.71398941 140.71398941 140.71398941 140.71398941 140.71398941 140.71398941 140.71398941 140.71398941 140.71398941 140.71398941 140.71398941 140.71398941 140.71398941 140.71398941 140.71398941 140.71398941 140.71398941 140.71398941 140.71398941 140.71398941 140.71398941 140.71398941 140.71398941 140.71398941 140.71398941 140.71398941 140.71398941 140.71398941 140.71398941 140.71398941 140.71398941 140.71398941 140.71398941 140.71398941 140.71398941 140.71398941 140.71398941 140.71398941 140.71398941 140.71398941 140.71398941 140.71398941 140.71398941 140.71398941 140.71398941 140.71398941 140.71398941 140.71398941 140.71398941 140.71398941 140.71398941 140.71398941 140.71398941 140.71398941 140.71398941 140.71398941 140.71398941 140.71398941 140.71398941 140.71398941 140.71398941 140.71398941 140.71398941 140.71398941 140.71398941 140.71398941 140.71398941 140.71398941 140.71398941 140.71398941 140.71398941 