# vtk DataFile Version 3.0
VTK - Matlab export
ASCII
DATASET STRUCTURED_POINTS
DIMENSIONS 40 40 1
SPACING 1 1 1
ORIGIN 0 0 0
POINT_DATA 1600
SCALARS lambda-2 float 1
LOOKUP_TABLE default
8.35311101 8.35311101 8.35311101 8.35311101 8.35311101 8.35311101 8.35311101 8.35311101 8.35311101 8.35311101 8.35311101 8.35311101 8.35311101 8.35311101 8.35311101 8.35311101 8.35311101 8.35311101 8.35311101 8.35311101 8.35311101 8.35311101 8.35311101 8.35311101 8.35311101 8.35311101 8.35311101 8.35311101 8.35311101 8.35311101 8.35311101 8.35311101 8.35311101 8.35311101 8.35311101 8.35311101 8.35311101 8.35311101 8.35311101 8.35311101 8.35311101 8.35311101 8.35311101 8.35311101 8.35311101 8.35311101 8.35311101 8.35311101 8.35311101 8.35311101 8.35311101 8.35311101 8.35311101 8.35311101 8.35311101 8.35311101 8.35311101 8.35311101 8.35311101 8.35311101 8.35311101 8.35311101 8.35311101 8.35311101 8.35311101 8.35311101 8.35311101 8.35311101 8.35311101 8.35311101 8.35311101 8.35311101 8.35311101 8.35311101 8.35311101 8.35311101 8.35311101 8.35311101 8.35311101 8.35311101 8.35311101 8.35311101 8.35311101 8.35311101 8.35311101 8.35311101 8.35311101 8.35311101 8.35311101 8.35311101 8.35311101 8.35311101 8.35311101 8.35311101 8.35311101 8.35311101 8.35311101 8.35311101 8.35311101 8.35311101 8.35311101 8.35311101 8.35311101 8.35311101 8.35311101 8.35311101 8.35311101 8.35311101 8.35311101 8.35311101 8.35311101 8.35311101 8.35311101 8.35311101 8.35311101 8.35311101 8.35311101 8.35311101 8.35311101 8.35311101 8.35311101 8.35311101 8.35311101 8.35311101 8.35311101 8.35311101 8.35311101 8.35311101 8.35311101 8.35311101 8.35311101 8.35311101 8.35311101 8.35311101 8.35311101 8.35311101 8.35311101 8.35311101 8.35311101 8.35311101 8.35311101 8.35311101 8.35311101 8.35311101 8.35311101 8.35311101 8.35311101 8.35311101 8.35311101 8.35311101 8.35311101 8.35311101 8.35311101 8.35311101 8.35311101 8.35311101 8.35311101 8.35311101 8.35311101 8.35311101 8.35311101 8.35311101 8.35311101 8.35311101 8.35311101 8.35311101 8.35311101 8.35311101 8.35311101 8.35311101 8.35311101 8.35311101 8.35311101 8.35311101 8.35311101 8.35311101 8.35311101 8.35311101 8.35311101 8.35311101 8.35311101 8.35311101 8.35311101 8.35311101 8.35311101 8.35311101 8.35311101 8.35311101 8.35311101 8.35311101 8.35311101 8.35311101 8.35311101 8.35311101 8.35311101 8.35311101 8.35311101 8.35311101 8.35311101 8.35311101 8.35311101 8.35311101 8.35311101 8.35311101 8.35311101 8.35311101 8.35311101 8.35311101 8.35311101 8.35311101 8.35311101 8.35311101 8.35311101 8.35311101 8.35311101 8.35311101 8.35311101 8.35311101 8.35311101 8.35311101 8.35311101 8.35311101 8.35311101 8.35311101 8.35311101 8.35311101 8.35311101 8.35311101 8.35311101 8.35311101 8.35311101 8.35311101 8.35311101 8.35311101 8.35311101 8.35311101 8.35311101 8.35311101 8.35311101 8.35311101 8.35311101 8.35311101 8.35311101 8.35311101 8.35311101 8.35311101 8.35311101 8.35311101 8.35311101 8.35311101 8.35311101 8.35311101 8.35311101 8.35311101 8.35311101 8.35311101 8.35311101 8.35311101 8.35311101 8.35311101 8.35311101 8.35311101 8.35311101 8.35311101 8.35311101 8.35311101 8.35311101 8.35311101 8.35311101 8.35311101 8.35311101 8.35311101 8.35311101 8.35311101 8.35311101 8.35311101 8.35311101 8.35311101 8.35311101 8.35311101 8.35311101 8.35311101 8.35311101 8.35311101 8.35311101 8.35311101 8.35311101 8.35311101 8.35311101 8.35311101 8.35311101 8.35311101 8.35311101 8.35311101 8.35311101 8.35311101 8.35311101 8.35311101 8.35311101 8.35311101 8.35311101 8.35311101 8.35311101 8.35311101 8.35311101 8.35311101 8.35311101 8.35311101 8.35311101 8.35311101 8.35311101 8.35311101 8.35311101 8.35311101 8.35311101 8.35311101 8.35311101 8.35311101 8.35311101 8.35311101 8.35311101 8.35311101 8.35311101 8.35311101 8.35311101 8.35311101 8.35311101 8.35311101 8.35311101 8.35311101 8.35311101 8.35311101 8.35311101 8.35311101 8.35311101 8.35311101 8.35311101 8.34998374 8.34827424 8.34764258 8.34764258 8.34827424 8.34998374 8.35311101 8.35311101 8.35311101 8.35311101 8.35311101 8.35311101 8.35311101 8.35311101 8.35311101 8.35311101 8.35311101 8.35311101 8.35311101 8.35311101 8.35311101 8.35311101 8.35311101 8.35311101 8.35311101 8.35311101 8.35311101 8.35311101 8.35311101 8.35311101 8.35311101 8.35311101 8.35311101 8.35311101 8.35311101 8.34980816 8.34734533 8.34588612 8.34494654 8.34409899 8.34264806 8.34145358 8.34087481 8.34087481 8.34145358 8.34264806 8.34409899 8.34494654 8.34588612 8.34734533 8.34980816 8.35311101 8.35311101 8.35311101 8.35311101 8.35311101 8.35311101 8.35311101 8.35311101 8.35311101 8.35311101 8.35311101 8.35311101 8.35311101 8.35311101 8.35311101 8.35311101 8.35311101 8.35311101 8.35311101 8.35311101 8.35311101 8.35311101 8.34819550 8.34545544 8.34272934 8.34029149 8.33850686 8.33724658 8.33625101 8.33528300 8.33450485 8.33409533 8.33409533 8.33450485 8.33528300 8.33625101 8.33724658 8.33850686 8.34029149 8.34272934 8.34545544 8.34819550 8.35311101 8.35311101 8.35311101 8.35311101 8.35311101 8.35311101 8.35311101 8.35311101 8.35311101 8.35311101 8.35311101 8.35311101 8.35311101 8.35311101 8.35311101 8.35311101 8.35311101 8.35311101 8.34850006 8.34518089 8.34128717 8.33816156 8.33556495 8.33344430 8.33187364 8.33077105 8.32997350 8.32934559 8.32888546 8.32864373 8.32864373 8.32888546 8.32934559 8.32997350 8.33077105 8.33187364 8.33344430 8.33556495 8.33816156 8.34128717 8.34518089 8.34850006 8.35311101 8.35311101 8.35311101 8.35311101 8.35311101 8.35311101 8.35311101 8.35311101 8.35311101 8.35311101 8.35311101 8.35311101 8.35311101 8.35311101 8.35311101 8.34724337 8.34226285 8.33811637 8.33447579 8.33160346 8.32944640 8.32789784 8.32687324 8.32624768 8.32587513 8.32563841 8.32548553 8.32540849 8.32540849 8.32548553 8.32563841 8.32587513 8.32624768 8.32687324 8.32789784 8.32944640 8.33160346 8.33447579 8.33811637 8.34226285 8.34724337 8.35311101 8.35311101 8.35311101 8.35311101 8.35311101 8.35311101 8.35311101 8.35311101 8.35311101 8.35311101 8.35311101 8.35311101 8.35020058 8.34601400 8.34066502 8.33575992 8.33171407 8.32857937 8.32638206 8.32500960 8.32428511 8.32402885 8.32406642 8.32424278 8.32444214 8.32459765 8.32468026 8.32468026 8.32459765 8.32444214 8.32424278 8.32406642 8.32402885 8.32428511 8.32500960 8.32638206 8.32857937 8.33171407 8.33575992 8.34066502 8.34601400 8.35020058 8.35311101 8.35311101 8.35311101 8.35311101 8.35311101 8.35311101 8.35311101 8.35311101 8.35311101 8.35311101 8.34604561 8.34004016 8.33450553 8.32986271 8.32637384 8.32407599 8.32286207 8.32251388 8.32276937 8.32338012 8.32413704 8.32488027 8.32550155 8.32593869 8.32616248 8.32616248 8.32593869 8.32550155 8.32488027 8.32413704 8.32338012 8.32276937 8.32251388 8.32286207 8.32407599 8.32637384 8.32986271 8.33450553 8.34004016 8.34604561 8.35311101 8.35311101 8.35311101 8.35311101 8.35311101 8.35311101 8.35311101 8.35311101 8.35311101 8.34742771 8.34081167 8.33453454 8.32913107 8.32501472 8.32236708 8.32112651 8.32105418 8.32181664 8.32306939 8.32451610 8.32593355 8.32717202 8.32814336 8.32880381 8.32913634 8.32913634 8.32880381 8.32814336 8.32717202 8.32593355 8.32451610 8.32306939 8.32181664 8.32105418 8.32112651 8.32236708 8.32501472 8.32913107 8.33453454 8.34081167 8.34742771 8.35311101 8.35311101 8.35311101 8.35311101 8.35311101 8.35311101 8.35311101 8.34901277 8.34290304 8.33615200 8.32987705 8.32481482 8.32139009 8.31970503 8.31957720 8.32063637 8.32244149 8.32458064 8.32673061 8.32867333 8.33028333 8.33150238 8.33231296 8.33271608 8.33271608 8.33231296 8.33150238 8.33028333 8.32867333 8.32673061 8.32458064 8.32244149 8.32063637 8.31957720 8.31970503 8.32139009 8.32481482 8.32987705 8.33615200 8.34290304 8.34901277 8.35311101 8.35311101 8.35311101 8.35311101 8.35311101 8.35311101 8.34668211 8.33961975 8.33254475 8.32632662 8.32166772 8.31894602 8.31817160 8.31904273 8.32107237 8.32373162 8.32656157 8.32922984 8.33153594 8.33338514 8.33475180 8.33564546 8.33608556 8.33608556 8.33564546 8.33475180 8.33338514 8.33153594 8.32922984 8.32656157 8.32373162 8.32107237 8.31904273 8.31817160 8.31894602 8.32166772 8.32632662 8.33254475 8.33961975 8.34668211 8.35311101 8.35311101 8.35311101 8.35311101 8.35311101 8.35311101 8.34518637 8.33743209 8.33011058 8.32396790 8.31965724 8.31750160 8.31743017 8.31904606 8.32177509 8.32502767 8.32831732 8.33131293 8.33383385 8.33581299 8.33725176 8.33818143 8.33863597 8.33863597 8.33818143 8.33725176 8.33581299 8.33383385 8.33131293 8.32831732 8.32502767 8.32177509 8.31904606 8.31743017 8.31750160 8.31965724 8.32396790 8.33011058 8.33743209 8.34518637 8.35311101 8.35311101 8.35311101 8.35311101 8.35311101 8.35073788 8.34396674 8.33623977 8.32887047 8.32279529 8.31868789 8.31684702 8.31715691 8.31916843 8.32226110 8.32581471 8.32933067 8.33248121 8.33509838 8.33713123 8.33859641 8.33953713 8.33999527 8.33999527 8.33953713 8.33859641 8.33713123 8.33509838 8.33248121 8.32933067 8.32581471 8.32226110 8.31916843 8.31715691 8.31684702 8.31868789 8.32279529 8.32887047 8.33623977 8.34396674 8.35073788 8.35311101 8.35311101 8.35311101 8.35311101 8.35073788 8.34396674 8.33623977 8.32887047 8.32279529 8.31868789 8.31684702 8.31715691 8.31916843 8.32226110 8.32581471 8.32933067 8.33248121 8.33509838 8.33713123 8.33859641 8.33953713 8.33999527 8.33999527 8.33953713 8.33859641 8.33713123 8.33509838 8.33248121 8.32933067 8.32581471 8.32226110 8.31916843 8.31715691 8.31684702 8.31868789 8.32279529 8.32887047 8.33623977 8.34396674 8.35073788 8.35311101 8.35311101 8.35311101 8.35311101 8.35311101 8.34518637 8.33743209 8.33011058 8.32396790 8.31965724 8.31750160 8.31743017 8.31904606 8.32177509 8.32502767 8.32831732 8.33131293 8.33383385 8.33581299 8.33725176 8.33818143 8.33863597 8.33863597 8.33818143 8.33725176 8.33581299 8.33383385 8.33131293 8.32831732 8.32502767 8.32177509 8.31904606 8.31743017 8.31750160 8.31965724 8.32396790 8.33011058 8.33743209 8.34518637 8.35311101 8.35311101 8.35311101 8.35311101 8.35311101 8.35311101 8.34668211 8.33961975 8.33254475 8.32632662 8.32166772 8.31894602 8.31817160 8.31904273 8.32107237 8.32373162 8.32656157 8.32922984 8.33153594 8.33338514 8.33475180 8.33564546 8.33608556 8.33608556 8.33564546 8.33475180 8.33338514 8.33153594 8.32922984 8.32656157 8.32373162 8.32107237 8.31904273 8.31817160 8.31894602 8.32166772 8.32632662 8.33254475 8.33961975 8.34668211 8.35311101 8.35311101 8.35311101 8.35311101 8.35311101 8.35311101 8.34901277 8.34290304 8.33615200 8.32987705 8.32481482 8.32139009 8.31970503 8.31957720 8.32063637 8.32244149 8.32458064 8.32673061 8.32867333 8.33028333 8.33150238 8.33231296 8.33271608 8.33271608 8.33231296 8.33150238 8.33028333 8.32867333 8.32673061 8.32458064 8.32244149 8.32063637 8.31957720 8.31970503 8.32139009 8.32481482 8.32987705 8.33615200 8.34290304 8.34901277 8.35311101 8.35311101 8.35311101 8.35311101 8.35311101 8.35311101 8.35311101 8.34742771 8.34081167 8.33453454 8.32913107 8.32501472 8.32236708 8.32112651 8.32105418 8.32181664 8.32306939 8.32451610 8.32593355 8.32717202 8.32814336 8.32880381 8.32913634 8.32913634 8.32880381 8.32814336 8.32717202 8.32593355 8.32451610 8.32306939 8.32181664 8.32105418 8.32112651 8.32236708 8.32501472 8.32913107 8.33453454 8.34081167 8.34742771 8.35311101 8.35311101 8.35311101 8.35311101 8.35311101 8.35311101 8.35311101 8.35311101 8.35311101 8.34604561 8.34004016 8.33450553 8.32986271 8.32637384 8.32407599 8.32286207 8.32251388 8.32276937 8.32338012 8.32413704 8.32488027 8.32550155 8.32593869 8.32616248 8.32616248 8.32593869 8.32550155 8.32488027 8.32413704 8.32338012 8.32276937 8.32251388 8.32286207 8.32407599 8.32637384 8.32986271 8.33450553 8.34004016 8.34604561 8.35311101 8.35311101 8.35311101 8.35311101 8.35311101 8.35311101 8.35311101 8.35311101 8.35311101 8.35311101 8.35020058 8.34601400 8.34066502 8.33575992 8.33171407 8.32857937 8.32638206 8.32500960 8.32428511 8.32402885 8.32406642 8.32424278 8.32444214 8.32459765 8.32468026 8.32468026 8.32459765 8.32444214 8.32424278 8.32406642 8.32402885 8.32428511 8.32500960 8.32638206 8.32857937 8.33171407 8.33575992 8.34066502 8.34601400 8.35020058 8.35311101 8.35311101 8.35311101 8.35311101 8.35311101 8.35311101 8.35311101 8.35311101 8.35311101 8.35311101 8.35311101 8.35311101 8.34724337 8.34226285 8.33811637 8.33447579 8.33160346 8.32944640 8.32789784 8.32687324 8.32624768 8.32587513 8.32563841 8.32548553 8.32540849 8.32540849 8.32548553 8.32563841 8.32587513 8.32624768 8.32687324 8.32789784 8.32944640 8.33160346 8.33447579 8.33811637 8.34226285 8.34724337 8.35311101 8.35311101 8.35311101 8.35311101 8.35311101 8.35311101 8.35311101 8.35311101 8.35311101 8.35311101 8.35311101 8.35311101 8.35311101 8.35311101 8.35311101 8.34850006 8.34518089 8.34128717 8.33816156 8.33556495 8.33344430 8.33187364 8.33077105 8.32997350 8.32934559 8.32888546 8.32864373 8.32864373 8.32888546 8.32934559 8.32997350 8.33077105 8.33187364 8.33344430 8.33556495 8.33816156 8.34128717 8.34518089 8.34850006 8.35311101 8.35311101 8.35311101 8.35311101 8.35311101 8.35311101 8.35311101 8.35311101 8.35311101 8.35311101 8.35311101 8.35311101 8.35311101 8.35311101 8.35311101 8.35311101 8.35311101 8.35311101 8.34819550 8.34545544 8.34272934 8.34029149 8.33850686 8.33724658 8.33625101 8.33528300 8.33450485 8.33409533 8.33409533 8.33450485 8.33528300 8.33625101 8.33724658 8.33850686 8.34029149 8.34272934 8.34545544 8.34819550 8.35311101 8.35311101 8.35311101 8.35311101 8.35311101 8.35311101 8.35311101 8.35311101 8.35311101 8.35311101 8.35311101 8.35311101 8.35311101 8.35311101 8.35311101 8.35311101 8.35311101 8.35311101 8.35311101 8.35311101 8.35311101 8.35311101 8.34980816 8.34734533 8.34588612 8.34494654 8.34409899 8.34264806 8.34145358 8.34087481 8.34087481 8.34145358 8.34264806 8.34409899 8.34494654 8.34588612 8.34734533 8.34980816 8.35311101 8.35311101 8.35311101 8.35311101 8.35311101 8.35311101 8.35311101 8.35311101 8.35311101 8.35311101 8.35311101 8.35311101 8.35311101 8.35311101 8.35311101 8.35311101 8.35311101 8.35311101 8.35311101 8.35311101 8.35311101 8.35311101 8.35311101 8.35311101 8.35311101 8.35311101 8.35311101 8.35311101 8.35311101 8.34998374 8.34827424 8.34764258 8.34764258 8.34827424 8.34998374 8.35311101 8.35311101 8.35311101 8.35311101 8.35311101 8.35311101 8.35311101 8.35311101 8.35311101 8.35311101 8.35311101 8.35311101 8.35311101 8.35311101 8.35311101 8.35311101 8.35311101 8.35311101 8.35311101 8.35311101 8.35311101 8.35311101 8.35311101 8.35311101 8.35311101 8.35311101 8.35311101 8.35311101 8.35311101 8.35311101 8.35311101 8.35311101 8.35311101 8.35311101 8.35311101 8.35311101 8.35311101 8.35311101 8.35311101 8.35311101 8.35311101 8.35311101 8.35311101 8.35311101 8.35311101 8.35311101 8.35311101 8.35311101 8.35311101 8.35311101 8.35311101 8.35311101 8.35311101 8.35311101 8.35311101 8.35311101 8.35311101 8.35311101 8.35311101 8.35311101 8.35311101 8.35311101 8.35311101 8.35311101 8.35311101 8.35311101 8.35311101 8.35311101 8.35311101 8.35311101 8.35311101 8.35311101 8.35311101 8.35311101 8.35311101 8.35311101 8.35311101 8.35311101 8.35311101 8.35311101 8.35311101 8.35311101 8.35311101 8.35311101 8.35311101 8.35311101 8.35311101 8.35311101 8.35311101 8.35311101 8.35311101 8.35311101 8.35311101 8.35311101 8.35311101 8.35311101 8.35311101 8.35311101 8.35311101 8.35311101 8.35311101 8.35311101 8.35311101 8.35311101 8.35311101 8.35311101 8.35311101 8.35311101 8.35311101 8.35311101 8.35311101 8.35311101 8.35311101 8.35311101 8.35311101 8.35311101 8.35311101 8.35311101 8.35311101 8.35311101 8.35311101 8.35311101 8.35311101 8.35311101 8.35311101 8.35311101 8.35311101 8.35311101 8.35311101 8.35311101 8.35311101 8.35311101 8.35311101 8.35311101 8.35311101 8.35311101 8.35311101 8.35311101 8.35311101 8.35311101 8.35311101 8.35311101 8.35311101 8.35311101 8.35311101 8.35311101 8.35311101 8.35311101 8.35311101 8.35311101 8.35311101 8.35311101 8.35311101 8.35311101 8.35311101 8.35311101 8.35311101 8.35311101 8.35311101 8.35311101 8.35311101 8.35311101 8.35311101 8.35311101 8.35311101 8.35311101 8.35311101 8.35311101 8.35311101 8.35311101 8.35311101 8.35311101 8.35311101 8.35311101 8.35311101 8.35311101 8.35311101 8.35311101 8.35311101 8.35311101 8.35311101 8.35311101 8.35311101 8.35311101 8.35311101 8.35311101 8.35311101 8.35311101 8.35311101 8.35311101 8.35311101 8.35311101 8.35311101 8.35311101 8.35311101 8.35311101 8.35311101 8.35311101 8.35311101 8.35311101 8.35311101 8.35311101 8.35311101 8.35311101 8.35311101 8.35311101 8.35311101 8.35311101 8.35311101 8.35311101 8.35311101 8.35311101 8.35311101 8.35311101 8.35311101 8.35311101 8.35311101 8.35311101 8.35311101 8.35311101 8.35311101 8.35311101 8.35311101 8.35311101 8.35311101 8.35311101 8.35311101 8.35311101 8.35311101 8.35311101 8.35311101 8.35311101 8.35311101 8.35311101 8.35311101 8.35311101 8.35311101 8.35311101 8.35311101 8.35311101 8.35311101 8.35311101 8.35311101 8.35311101 8.35311101 8.35311101 8.35311101 8.35311101 8.35311101 8.35311101 8.35311101 8.35311101 8.35311101 8.35311101 8.35311101 8.35311101 8.35311101 8.35311101 8.35311101 8.35311101 8.35311101 8.35311101 8.35311101 8.35311101 8.35311101 8.35311101 8.35311101 8.35311101 8.35311101 8.35311101 8.35311101 8.35311101 8.35311101 8.35311101 8.35311101 8.35311101 8.35311101 8.35311101 8.35311101 8.35311101 8.35311101 8.35311101 8.35311101 8.35311101 8.35311101 8.35311101 8.35311101 8.35311101 8.35311101 8.35311101 8.35311101 8.35311101 8.35311101 8.35311101 8.35311101 8.35311101 8.35311101 8.35311101 8.35311101 8.35311101 8.35311101 8.35311101 8.35311101 8.35311101 8.35311101 8.35311101 8.35311101 8.35311101 8.35311101 8.35311101 8.35311101 8.35311101 8.35311101 8.35311101 8.35311101 8.35311101 8.35311101 8.35311101 8.35311101 8.35311101 8.35311101 8.35311101 8.35311101 8.35311101 8.35311101 8.35311101 8.35311101 8.35311101 8.35311101 8.35311101 8.35311101 8.35311101 8.35311101 8.35311101 8.35311101 8.35311101 8.35311101 