# vtk DataFile Version 3.0
VTK - Matlab export
ASCII
DATASET STRUCTURED_POINTS
DIMENSIONS 40 40 1
SPACING 1 1 1
ORIGIN 0 0 0
POINT_DATA 1600
SCALARS Temperature float 1
LOOKUP_TABLE default
200.00000000 200.00000000 200.00000000 200.00000000 200.00000000 200.00000000 200.00000000 200.00000000 200.00000000 200.00000000 200.00000000 200.00000000 200.00000000 200.00000000 200.00000000 200.00000000 200.00000000 200.00000000 200.00000000 200.00000000 200.00000000 200.00000000 200.00000000 200.00000000 200.00000000 200.00000000 200.00000000 200.00000000 200.00000000 200.00000000 200.00000000 200.00000000 200.00000000 200.00000000 200.00000000 200.00000000 200.00000000 200.00000000 200.00000000 200.00000000 200.00000000 200.00000000 200.00000000 200.00000000 200.00000000 200.00000000 200.00000000 200.00000000 200.00000000 200.00000000 200.00000000 200.00000000 200.00000000 200.00000000 200.00000000 200.00000000 200.00000000 200.00000000 200.00000000 200.00000000 200.00000000 200.00000000 200.00000000 200.00000000 200.00000000 200.00000000 200.00000000 200.00000000 200.00000000 200.00000000 200.00000000 200.00000000 200.00000000 200.00000000 200.00000000 200.00000000 200.00000000 200.00000000 200.00000000 200.00000000 200.00000000 200.00000000 200.00000000 200.00000000 200.00000000 200.00000000 200.00000000 200.00000000 200.00000000 200.00000000 200.00000000 200.00000000 200.00000000 200.00000000 200.00000000 200.00000000 200.00000000 200.00000000 200.00000000 200.00000000 200.00000000 200.00000000 200.00000000 200.00000000 200.00000000 200.00000000 200.00000000 200.00000000 200.00000000 200.00000000 200.00000000 200.00000000 200.00000000 200.00000000 200.00000000 200.00000000 200.00000000 200.00000000 200.00000000 200.00000000 200.00000000 200.00000000 200.00000000 200.00000000 200.00000000 200.00000000 200.00000000 200.00000000 200.00000000 200.00000000 200.00000000 200.00000000 200.00000000 200.00000000 200.00000000 200.00000000 200.00000000 200.00000000 200.00000000 200.00000000 200.00000000 200.00000000 200.00000000 200.00000000 200.00000000 200.00000000 200.00000000 200.00000000 200.00000000 200.00000000 200.00000000 200.00000000 200.00000000 200.00000000 200.00000000 200.00000000 200.00000000 200.00000000 200.00000000 200.00000000 200.00000000 200.00000000 200.00000000 200.00000000 200.00000000 200.00000000 200.00000000 200.00000000 200.00000000 200.00000000 200.00000000 200.00000000 200.00000000 200.00000000 200.00000000 200.00000000 200.00000000 200.00000000 200.00000000 200.00000000 200.00000000 200.00000000 200.00000000 200.00000000 200.00000000 200.00000000 200.00000000 200.00000000 200.00000000 200.00000000 200.00000000 200.00000000 200.00000000 200.00000000 200.00000000 200.00000000 200.00000000 200.00000000 200.00000000 200.00000000 200.00000000 200.00000000 200.00000000 200.00000000 200.00000000 200.00000000 200.00000000 200.00000000 200.00000000 200.00000000 200.00000000 200.00000000 200.00000000 200.00000000 200.00000000 200.00000000 200.00000000 200.00000000 200.00000000 200.00000000 200.00000000 200.00000000 200.00000000 200.00000000 200.00000000 200.00000000 200.00000000 200.00000000 200.00000000 200.00000000 200.00000000 200.00000000 200.00000000 200.00000000 200.00000000 200.00000000 200.00000000 200.00000000 200.00000000 200.00000000 200.00000000 200.00000000 200.00000000 200.00000000 200.00000000 200.00000000 200.00000000 200.00000000 200.00000000 200.00000000 200.00000000 200.00000000 200.00000000 200.00000000 200.00000000 200.00000000 200.00000000 200.00000000 200.00000000 200.00000000 200.00000000 200.00000000 200.00000000 200.00000000 200.00000000 200.00000000 200.00000000 200.00000000 200.00000000 200.00000000 200.00000000 200.00000000 200.00000000 200.00000000 200.00000000 200.00000000 200.00000000 200.00000000 200.00000000 200.00000000 200.00000000 200.00000000 200.00000000 200.00000000 200.00000000 200.00000000 200.00000000 200.00000000 200.00000000 200.00000000 200.00000000 200.00000000 200.00000000 200.00000000 200.00000000 200.00000000 200.00000000 200.00000000 200.00000000 200.00000000 200.00000000 200.00000000 200.00000000 200.00000000 200.00000000 200.00000000 200.00000000 200.00000000 200.00000000 200.00000000 200.00000000 200.00000000 200.00000000 200.00000000 200.00000000 200.00000000 200.00000000 200.00000000 200.00000000 200.00000000 200.00000000 200.00000000 200.00000000 200.00000000 200.00000000 200.00000000 200.00000000 200.00000000 200.00000000 200.00000000 200.00000000 200.00000000 200.00000000 200.00000000 200.00000000 200.00000000 200.00000000 234.44809767 253.15452878 260.04709242 260.04709242 253.15452878 234.44809767 200.00000000 200.00000000 200.00000000 200.00000000 200.00000000 200.00000000 200.00000000 200.00000000 200.00000000 200.00000000 200.00000000 200.00000000 200.00000000 200.00000000 200.00000000 200.00000000 200.00000000 200.00000000 200.00000000 200.00000000 200.00000000 200.00000000 200.00000000 200.00000000 200.00000000 200.00000000 200.00000000 200.00000000 200.00000000 235.21747066 261.98919067 278.48718680 289.67773267 299.89928858 316.48212968 329.96822234 336.50112936 336.50112936 329.96822234 316.48212968 299.89928858 289.67773267 278.48718680 261.98919067 235.21747066 200.00000000 200.00000000 200.00000000 200.00000000 200.00000000 200.00000000 200.00000000 200.00000000 200.00000000 200.00000000 200.00000000 200.00000000 200.00000000 200.00000000 200.00000000 200.00000000 200.00000000 200.00000000 200.00000000 200.00000000 200.00000000 200.00000000 251.17298818 280.79301254 311.22866289 339.36864071 361.12064330 377.51413796 390.92192797 403.54597784 413.44166943 418.62036985 418.62036985 413.44166943 403.54597784 390.92192797 377.51413796 361.12064330 339.36864071 311.22866289 280.79301254 251.17298818 200.00000000 200.00000000 200.00000000 200.00000000 200.00000000 200.00000000 200.00000000 200.00000000 200.00000000 200.00000000 200.00000000 200.00000000 200.00000000 200.00000000 200.00000000 200.00000000 200.00000000 200.00000000 246.49387607 281.31454750 323.53116682 359.41901284 391.19344833 418.94640181 441.39446476 458.85844988 472.53122599 483.41128018 491.22813036 495.29206204 495.29206204 491.22813036 483.41128018 472.53122599 458.85844988 441.39446476 418.94640181 391.19344833 359.41901284 323.53116682 281.31454750 246.49387607 200.00000000 200.00000000 200.00000000 200.00000000 200.00000000 200.00000000 200.00000000 200.00000000 200.00000000 200.00000000 200.00000000 200.00000000 200.00000000 200.00000000 200.00000000 258.04727291 309.28357850 354.57104006 397.20551406 434.22553683 465.59705160 491.65309268 512.46036649 528.55340806 540.79500733 549.90113893 556.07595211 559.21109275 559.21109275 556.07595211 549.90113893 540.79500733 528.55340806 512.46036649 491.65309268 465.59705160 434.22553683 397.20551406 354.57104006 309.28357850 258.04727291 200.00000000 200.00000000 200.00000000 200.00000000 200.00000000 200.00000000 200.00000000 200.00000000 200.00000000 200.00000000 200.00000000 200.00000000 227.61295888 268.45188293 322.65601390 375.49287617 423.25639835 465.25091138 500.55997569 529.33481518 552.23133156 569.97175544 583.38208133 593.30576734 600.40858631 605.05199872 607.36004976 607.36004976 605.05199872 600.40858631 593.30576734 583.38208133 569.97175544 552.23133156 529.33481518 500.55997569 465.25091138 423.25639835 375.49287617 322.65601390 268.45188293 227.61295888 200.00000000 200.00000000 200.00000000 200.00000000 200.00000000 200.00000000 200.00000000 200.00000000 200.00000000 200.00000000 266.63709827 325.62051609 383.59985882 437.23718379 484.14770031 523.45336116 555.10607317 579.80863378 598.63177379 612.68001315 622.97022434 630.36274792 635.49563554 638.76189562 640.35752434 640.35752434 638.76189562 635.49563554 630.36274792 622.97022434 612.68001315 598.63177379 579.80863378 555.10607317 523.45336116 484.14770031 437.23718379 383.59985882 325.62051609 266.63709827 200.00000000 200.00000000 200.00000000 200.00000000 200.00000000 200.00000000 200.00000000 200.00000000 200.00000000 252.35823269 315.23779089 378.25925711 437.69619020 490.36535135 534.47631338 569.70140352 596.73015127 616.83477573 631.45386985 641.90832708 649.28549994 654.41407183 657.87282926 660.02224127 661.05637802 661.05637802 660.02224127 657.87282926 654.41407183 649.28549994 641.90832708 631.45386985 616.83477573 596.73015127 569.70140352 534.47631338 490.36535135 437.69619020 378.25925711 315.23779089 252.35823269 200.00000000 200.00000000 200.00000000 200.00000000 200.00000000 200.00000000 200.00000000 237.04145382 293.43540153 358.30200737 423.05918386 482.28893119 532.73090316 573.12697558 603.84174004 626.23302181 642.04594892 652.97273240 660.42189259 665.45809478 668.83179726 671.03768813 672.37637322 673.01092664 673.01092664 672.37637322 671.03768813 668.83179726 665.45809478 660.42189259 652.97273240 642.04594892 626.23302181 603.84174004 573.12697558 532.73090316 482.28893119 423.05918386 358.30200737 293.43540153 237.04145382 200.00000000 200.00000000 200.00000000 200.00000000 200.00000000 200.00000000 257.88964320 323.04782306 391.64276422 457.57496673 515.87731550 563.71174659 600.44047782 627.09009785 645.56102069 657.93309939 666.03588832 671.27968115 674.65855429 676.82874314 678.19946274 679.01015607 679.38840546 679.38840546 679.01015607 678.19946274 676.82874314 674.65855429 671.27968115 666.03588832 657.93309939 645.56102069 627.09009785 600.44047782 563.71174659 515.87731550 457.57496673 391.64276422 323.04782306 257.88964320 200.00000000 200.00000000 200.00000000 200.00000000 200.00000000 200.00000000 271.17966161 342.71623320 414.18839534 480.77626440 538.06327574 583.69290145 617.56705598 641.21974382 656.92401899 666.96019058 673.21346056 677.05987243 679.41953934 680.86910596 681.75124699 682.25874189 682.49156880 682.49156880 682.25874189 681.75124699 680.86910596 679.41953934 677.05987243 673.21346056 666.96019058 656.92401899 641.21974382 617.56705598 583.69290145 538.06327574 480.77626440 414.18839534 342.71623320 271.17966161 200.00000000 200.00000000 200.00000000 200.00000000 200.00000000 221.12844963 281.97294992 353.40313625 425.68894529 492.41238071 549.03822048 593.41844139 625.74673887 647.82600451 662.11551035 670.98588883 676.33728733 679.51716692 681.40056778 682.51961505 683.18127424 683.55369493 683.72227411 683.72227411 683.55369493 683.18127424 682.51961505 681.40056778 679.51716692 676.33728733 670.98588883 662.11551035 647.82600451 625.74673887 593.41844139 549.03822048 492.41238071 425.68894529 353.40313625 281.97294992 221.12844963 200.00000000 200.00000000 200.00000000 200.00000000 221.12844963 281.97294992 353.40313625 425.68894529 492.41238071 549.03822048 593.41844139 625.74673887 647.82600451 662.11551035 670.98588883 676.33728733 679.51716692 681.40056778 682.51961505 683.18127424 683.55369493 683.72227411 683.72227411 683.55369493 683.18127424 682.51961505 681.40056778 679.51716692 676.33728733 670.98588883 662.11551035 647.82600451 625.74673887 593.41844139 549.03822048 492.41238071 425.68894529 353.40313625 281.97294992 221.12844963 200.00000000 200.00000000 200.00000000 200.00000000 200.00000000 271.17966161 342.71623320 414.18839534 480.77626440 538.06327574 583.69290145 617.56705598 641.21974382 656.92401899 666.96019058 673.21346056 677.05987243 679.41953934 680.86910596 681.75124699 682.25874189 682.49156880 682.49156880 682.25874189 681.75124699 680.86910596 679.41953934 677.05987243 673.21346056 666.96019058 656.92401899 641.21974382 617.56705598 583.69290145 538.06327574 480.77626440 414.18839534 342.71623320 271.17966161 200.00000000 200.00000000 200.00000000 200.00000000 200.00000000 200.00000000 257.88964320 323.04782306 391.64276422 457.57496673 515.87731550 563.71174659 600.44047782 627.09009785 645.56102069 657.93309939 666.03588832 671.27968115 674.65855429 676.82874314 678.19946274 679.01015607 679.38840546 679.38840546 679.01015607 678.19946274 676.82874314 674.65855429 671.27968115 666.03588832 657.93309939 645.56102069 627.09009785 600.44047782 563.71174659 515.87731550 457.57496673 391.64276422 323.04782306 257.88964320 200.00000000 200.00000000 200.00000000 200.00000000 200.00000000 200.00000000 237.04145382 293.43540153 358.30200737 423.05918386 482.28893119 532.73090316 573.12697558 603.84174004 626.23302181 642.04594892 652.97273240 660.42189259 665.45809478 668.83179726 671.03768813 672.37637322 673.01092664 673.01092664 672.37637322 671.03768813 668.83179726 665.45809478 660.42189259 652.97273240 642.04594892 626.23302181 603.84174004 573.12697558 532.73090316 482.28893119 423.05918386 358.30200737 293.43540153 237.04145382 200.00000000 200.00000000 200.00000000 200.00000000 200.00000000 200.00000000 200.00000000 252.35823269 315.23779089 378.25925711 437.69619020 490.36535135 534.47631338 569.70140352 596.73015127 616.83477573 631.45386985 641.90832708 649.28549994 654.41407183 657.87282926 660.02224127 661.05637802 661.05637802 660.02224127 657.87282926 654.41407183 649.28549994 641.90832708 631.45386985 616.83477573 596.73015127 569.70140352 534.47631338 490.36535135 437.69619020 378.25925711 315.23779089 252.35823269 200.00000000 200.00000000 200.00000000 200.00000000 200.00000000 200.00000000 200.00000000 200.00000000 200.00000000 266.63709827 325.62051609 383.59985882 437.23718379 484.14770031 523.45336116 555.10607317 579.80863378 598.63177379 612.68001315 622.97022434 630.36274792 635.49563554 638.76189562 640.35752434 640.35752434 638.76189562 635.49563554 630.36274792 622.97022434 612.68001315 598.63177379 579.80863378 555.10607317 523.45336116 484.14770031 437.23718379 383.59985882 325.62051609 266.63709827 200.00000000 200.00000000 200.00000000 200.00000000 200.00000000 200.00000000 200.00000000 200.00000000 200.00000000 200.00000000 227.61295888 268.45188293 322.65601390 375.49287617 423.25639835 465.25091138 500.55997569 529.33481518 552.23133156 569.97175544 583.38208133 593.30576734 600.40858631 605.05199872 607.36004976 607.36004976 605.05199872 600.40858631 593.30576734 583.38208133 569.97175544 552.23133156 529.33481518 500.55997569 465.25091138 423.25639835 375.49287617 322.65601390 268.45188293 227.61295888 200.00000000 200.00000000 200.00000000 200.00000000 200.00000000 200.00000000 200.00000000 200.00000000 200.00000000 200.00000000 200.00000000 200.00000000 258.04727291 309.28357850 354.57104006 397.20551406 434.22553683 465.59705160 491.65309268 512.46036649 528.55340806 540.79500733 549.90113893 556.07595211 559.21109275 559.21109275 556.07595211 549.90113893 540.79500733 528.55340806 512.46036649 491.65309268 465.59705160 434.22553683 397.20551406 354.57104006 309.28357850 258.04727291 200.00000000 200.00000000 200.00000000 200.00000000 200.00000000 200.00000000 200.00000000 200.00000000 200.00000000 200.00000000 200.00000000 200.00000000 200.00000000 200.00000000 200.00000000 246.49387607 281.31454750 323.53116682 359.41901284 391.19344833 418.94640181 441.39446476 458.85844988 472.53122599 483.41128018 491.22813036 495.29206204 495.29206204 491.22813036 483.41128018 472.53122599 458.85844988 441.39446476 418.94640181 391.19344833 359.41901284 323.53116682 281.31454750 246.49387607 200.00000000 200.00000000 200.00000000 200.00000000 200.00000000 200.00000000 200.00000000 200.00000000 200.00000000 200.00000000 200.00000000 200.00000000 200.00000000 200.00000000 200.00000000 200.00000000 200.00000000 200.00000000 251.17298818 280.79301254 311.22866289 339.36864071 361.12064330 377.51413796 390.92192797 403.54597784 413.44166943 418.62036985 418.62036985 413.44166943 403.54597784 390.92192797 377.51413796 361.12064330 339.36864071 311.22866289 280.79301254 251.17298818 200.00000000 200.00000000 200.00000000 200.00000000 200.00000000 200.00000000 200.00000000 200.00000000 200.00000000 200.00000000 200.00000000 200.00000000 200.00000000 200.00000000 200.00000000 200.00000000 200.00000000 200.00000000 200.00000000 200.00000000 200.00000000 200.00000000 235.21747066 261.98919067 278.48718680 289.67773267 299.89928858 316.48212968 329.96822234 336.50112936 336.50112936 329.96822234 316.48212968 299.89928858 289.67773267 278.48718680 261.98919067 235.21747066 200.00000000 200.00000000 200.00000000 200.00000000 200.00000000 200.00000000 200.00000000 200.00000000 200.00000000 200.00000000 200.00000000 200.00000000 200.00000000 200.00000000 200.00000000 200.00000000 200.00000000 200.00000000 200.00000000 200.00000000 200.00000000 200.00000000 200.00000000 200.00000000 200.00000000 200.00000000 200.00000000 200.00000000 200.00000000 234.44809767 253.15452878 260.04709242 260.04709242 253.15452878 234.44809767 200.00000000 200.00000000 200.00000000 200.00000000 200.00000000 200.00000000 200.00000000 200.00000000 200.00000000 200.00000000 200.00000000 200.00000000 200.00000000 200.00000000 200.00000000 200.00000000 200.00000000 200.00000000 200.00000000 200.00000000 200.00000000 200.00000000 200.00000000 200.00000000 200.00000000 200.00000000 200.00000000 200.00000000 200.00000000 200.00000000 200.00000000 200.00000000 200.00000000 200.00000000 200.00000000 200.00000000 200.00000000 200.00000000 200.00000000 200.00000000 200.00000000 200.00000000 200.00000000 200.00000000 200.00000000 200.00000000 200.00000000 200.00000000 200.00000000 200.00000000 200.00000000 200.00000000 200.00000000 200.00000000 200.00000000 200.00000000 200.00000000 200.00000000 200.00000000 200.00000000 200.00000000 200.00000000 200.00000000 200.00000000 200.00000000 200.00000000 200.00000000 200.00000000 200.00000000 200.00000000 200.00000000 200.00000000 200.00000000 200.00000000 200.00000000 200.00000000 200.00000000 200.00000000 200.00000000 200.00000000 200.00000000 200.00000000 200.00000000 200.00000000 200.00000000 200.00000000 200.00000000 200.00000000 200.00000000 200.00000000 200.00000000 200.00000000 200.00000000 200.00000000 200.00000000 200.00000000 200.00000000 200.00000000 200.00000000 200.00000000 200.00000000 200.00000000 200.00000000 200.00000000 200.00000000 200.00000000 200.00000000 200.00000000 200.00000000 200.00000000 200.00000000 200.00000000 200.00000000 200.00000000 200.00000000 200.00000000 200.00000000 200.00000000 200.00000000 200.00000000 200.00000000 200.00000000 200.00000000 200.00000000 200.00000000 200.00000000 200.00000000 200.00000000 200.00000000 200.00000000 200.00000000 200.00000000 200.00000000 200.00000000 200.00000000 200.00000000 200.00000000 200.00000000 200.00000000 200.00000000 200.00000000 200.00000000 200.00000000 200.00000000 200.00000000 200.00000000 200.00000000 200.00000000 200.00000000 200.00000000 200.00000000 200.00000000 200.00000000 200.00000000 200.00000000 200.00000000 200.00000000 200.00000000 200.00000000 200.00000000 200.00000000 200.00000000 200.00000000 200.00000000 200.00000000 200.00000000 200.00000000 200.00000000 200.00000000 200.00000000 200.00000000 200.00000000 200.00000000 200.00000000 200.00000000 200.00000000 200.00000000 200.00000000 200.00000000 200.00000000 200.00000000 200.00000000 200.00000000 200.00000000 200.00000000 200.00000000 200.00000000 200.00000000 200.00000000 200.00000000 200.00000000 200.00000000 200.00000000 200.00000000 200.00000000 200.00000000 200.00000000 200.00000000 200.00000000 200.00000000 200.00000000 200.00000000 200.00000000 200.00000000 200.00000000 200.00000000 200.00000000 200.00000000 200.00000000 200.00000000 200.00000000 200.00000000 200.00000000 200.00000000 200.00000000 200.00000000 200.00000000 200.00000000 200.00000000 200.00000000 200.00000000 200.00000000 200.00000000 200.00000000 200.00000000 200.00000000 200.00000000 200.00000000 200.00000000 200.00000000 200.00000000 200.00000000 200.00000000 200.00000000 200.00000000 200.00000000 200.00000000 200.00000000 200.00000000 200.00000000 200.00000000 200.00000000 200.00000000 200.00000000 200.00000000 200.00000000 200.00000000 200.00000000 200.00000000 200.00000000 200.00000000 200.00000000 200.00000000 200.00000000 200.00000000 200.00000000 200.00000000 200.00000000 200.00000000 200.00000000 200.00000000 200.00000000 200.00000000 200.00000000 200.00000000 200.00000000 200.00000000 200.00000000 200.00000000 200.00000000 200.00000000 200.00000000 200.00000000 200.00000000 200.00000000 200.00000000 200.00000000 200.00000000 200.00000000 200.00000000 200.00000000 200.00000000 200.00000000 200.00000000 200.00000000 200.00000000 200.00000000 200.00000000 200.00000000 200.00000000 200.00000000 200.00000000 200.00000000 200.00000000 200.00000000 200.00000000 200.00000000 200.00000000 200.00000000 200.00000000 200.00000000 200.00000000 200.00000000 200.00000000 200.00000000 200.00000000 200.00000000 200.00000000 200.00000000 200.00000000 200.00000000 200.00000000 200.00000000 200.00000000 200.00000000 200.00000000 200.00000000 200.00000000 200.00000000 200.00000000 200.00000000 200.00000000 200.00000000 200.00000000 200.00000000 200.00000000 200.00000000 200.00000000 200.00000000 200.00000000 200.00000000 200.00000000 200.00000000 200.00000000 200.00000000 200.00000000 200.00000000 