# vtk DataFile Version 3.0
VTK - Matlab export
ASCII
DATASET STRUCTURED_POINTS
DIMENSIONS 40 40 1
SPACING 1 1 1
ORIGIN 0 0 0
POINT_DATA 1600
SCALARS lambda-2 float 1
LOOKUP_TABLE default
8.35311101 8.35311101 8.35311101 8.35311101 8.35311101 8.35311101 8.35311101 8.35311101 8.35311101 8.35311101 8.35311101 8.35311101 8.35311101 8.35311101 8.35311101 8.35311101 8.35311101 8.35311101 8.35311101 8.35311101 8.35311101 8.35311101 8.35311101 8.35311101 8.35311101 8.35311101 8.35311101 8.35311101 8.35311101 8.35311101 8.35311101 8.35311101 8.35311101 8.35311101 8.35311101 8.35311101 8.35311101 8.35311101 8.35311101 8.35311101 8.35311101 8.35311101 8.35311101 8.35311101 8.35311101 8.35311101 8.35311101 8.35311101 8.35311101 8.35311101 8.35311101 8.35311101 8.35311101 8.35311101 8.35311101 8.35311101 8.35311101 8.35311101 8.35311101 8.35311101 8.35311101 8.35311101 8.35311101 8.35311101 8.35311101 8.35311101 8.35311101 8.35311101 8.35311101 8.35311101 8.35311101 8.35311101 8.35311101 8.35311101 8.35311101 8.35311101 8.35311101 8.35311101 8.35311101 8.35311101 8.35311101 8.35311101 8.35311101 8.35311101 8.35311101 8.35311101 8.35311101 8.35311101 8.35311101 8.35311101 8.35311101 8.35311101 8.35311101 8.35311101 8.35311101 8.35311101 8.35311101 8.35311101 8.35311101 8.35311101 8.35311101 8.35311101 8.35311101 8.35311101 8.35311101 8.35311101 8.35311101 8.35311101 8.35311101 8.35311101 8.35311101 8.35311101 8.35311101 8.35311101 8.35311101 8.35311101 8.35311101 8.35311101 8.35311101 8.35311101 8.35311101 8.35311101 8.35311101 8.35311101 8.35311101 8.35311101 8.35311101 8.35311101 8.35311101 8.35311101 8.35311101 8.35311101 8.35311101 8.35311101 8.35311101 8.35311101 8.35311101 8.35311101 8.35311101 8.35311101 8.35311101 8.35311101 8.35311101 8.35311101 8.35311101 8.35311101 8.35311101 8.35311101 8.35311101 8.35311101 8.35311101 8.35311101 8.35311101 8.35311101 8.35311101 8.35311101 8.35311101 8.35311101 8.35311101 8.35311101 8.35311101 8.35311101 8.35311101 8.35311101 8.35311101 8.35311101 8.35311101 8.35311101 8.35311101 8.35311101 8.35311101 8.35311101 8.35311101 8.35311101 8.35311101 8.35311101 8.35311101 8.35311101 8.35311101 8.35311101 8.35311101 8.35311101 8.35311101 8.35311101 8.35311101 8.35311101 8.35311101 8.35311101 8.35311101 8.35311101 8.35311101 8.35311101 8.35311101 8.35311101 8.35311101 8.35311101 8.35311101 8.35311101 8.35311101 8.35311101 8.35311101 8.35311101 8.35311101 8.35311101 8.35311101 8.35311101 8.35311101 8.35311101 8.35311101 8.35311101 8.35311101 8.35311101 8.35311101 8.35311101 8.35311101 8.35311101 8.35311101 8.35311101 8.35311101 8.35311101 8.35311101 8.35311101 8.35311101 8.35311101 8.35311101 8.35311101 8.35311101 8.35311101 8.35311101 8.35311101 8.35311101 8.35311101 8.35311101 8.35311101 8.35311101 8.35311101 8.35311101 8.35311101 8.35311101 8.35311101 8.35311101 8.35311101 8.35311101 8.35311101 8.35311101 8.35311101 8.35311101 8.35311101 8.35311101 8.35311101 8.35311101 8.35311101 8.35311101 8.35311101 8.35311101 8.35311101 8.35311101 8.35311101 8.35311101 8.35311101 8.35311101 8.35311101 8.35311101 8.35311101 8.35311101 8.35311101 8.35311101 8.35311101 8.35311101 8.35311101 8.35311101 8.35311101 8.35311101 8.35311101 8.35311101 8.35311101 8.35311101 8.35311101 8.35311101 8.35311101 8.35311101 8.35311101 8.35311101 8.35311101 8.35311101 8.35311101 8.35311101 8.35311101 8.35311101 8.35311101 8.35311101 8.35311101 8.35311101 8.35311101 8.35311101 8.35311101 8.35311101 8.35311101 8.35311101 8.35311101 8.35311101 8.35311101 8.35311101 8.35311101 8.35311101 8.35311101 8.35311101 8.35311101 8.35311101 8.35311101 8.35311101 8.35311101 8.35311101 8.35311101 8.35311101 8.35311101 8.35311101 8.35311101 8.35311101 8.35311101 8.35311101 8.35311101 8.35311101 8.35311101 8.35311101 8.35311101 8.35311101 8.35311101 8.35311101 8.35311101 8.35311101 8.35311101 8.35311101 8.35311101 8.35311101 8.35311101 8.35311101 8.30597077 8.27276052 8.25883894 8.25883894 8.27276052 8.30597077 8.35311101 8.35311101 8.35311101 8.35311101 8.35311101 8.35311101 8.35311101 8.35311101 8.35311101 8.35311101 8.35311101 8.35311101 8.35311101 8.35311101 8.35311101 8.35311101 8.35311101 8.35311101 8.35311101 8.35311101 8.35311101 8.35311101 8.35311101 8.35311101 8.35311101 8.35311101 8.35311101 8.35311101 8.35311101 8.30528141 8.27038458 8.25753900 8.25712964 8.25593780 8.23830163 8.21955116 8.21083786 8.21083786 8.21955116 8.23830163 8.25593780 8.25712964 8.25753900 8.27038458 8.30528141 8.35311101 8.35311101 8.35311101 8.35311101 8.35311101 8.35311101 8.35311101 8.35311101 8.35311101 8.35311101 8.35311101 8.35311101 8.35311101 8.35311101 8.35311101 8.35311101 8.35311101 8.35311101 8.35311101 8.35311101 8.35311101 8.35311101 8.28495195 8.25738100 8.23644060 8.22284629 8.22346045 8.23241516 8.24011618 8.24070548 8.23887588 8.23879107 8.23879107 8.23887588 8.24070548 8.24011618 8.23241516 8.22346045 8.22284629 8.23644060 8.25738100 8.28495195 8.35311101 8.35311101 8.35311101 8.35311101 8.35311101 8.35311101 8.35311101 8.35311101 8.35311101 8.35311101 8.35311101 8.35311101 8.35311101 8.35311101 8.35311101 8.35311101 8.35311101 8.35311101 8.28914356 8.25719785 8.22882178 8.22482066 8.23271399 8.24392357 8.25771036 8.27114666 8.28121740 8.28740388 8.29160831 8.29444409 8.29444409 8.29160831 8.28740388 8.28121740 8.27114666 8.25771036 8.24392357 8.23271399 8.22482066 8.22882178 8.25719785 8.28914356 8.35311101 8.35311101 8.35311101 8.35311101 8.35311101 8.35311101 8.35311101 8.35311101 8.35311101 8.35311101 8.35311101 8.35311101 8.35311101 8.35311101 8.35311101 8.27992501 8.23473271 8.22464713 8.23351972 8.25426897 8.27628436 8.29398102 8.30732179 8.31671613 8.32291386 8.32713048 8.33027885 8.33221301 8.33221301 8.33027885 8.32713048 8.32291386 8.31671613 8.30732179 8.29398102 8.27628436 8.25426897 8.23351972 8.22464713 8.23473271 8.27992501 8.35311101 8.35311101 8.35311101 8.35311101 8.35311101 8.35311101 8.35311101 8.35311101 8.35311101 8.35311101 8.35311101 8.35311101 8.31016586 8.26544849 8.23018881 8.22646191 8.24766944 8.27597276 8.30115722 8.31922218 8.33065848 8.33760652 8.34165717 8.34404351 8.34567903 8.34692811 8.34766842 8.34766842 8.34692811 8.34567903 8.34404351 8.34165717 8.33760652 8.33065848 8.31922218 8.30115722 8.27597276 8.24766944 8.22646191 8.23018881 8.26544849 8.31016586 8.35311101 8.35311101 8.35311101 8.35311101 8.35311101 8.35311101 8.35311101 8.35311101 8.35311101 8.35311101 8.26463332 8.22664924 8.22980237 8.25773442 8.29088467 8.31681368 8.33315553 8.34217321 8.34684181 8.34923712 8.35043776 8.35107512 8.35151019 8.35184745 8.35204236 8.35204236 8.35184745 8.35151019 8.35107512 8.35043776 8.34923712 8.34684181 8.34217321 8.33315553 8.31681368 8.29088467 8.25773442 8.22980237 8.22664924 8.26463332 8.35311101 8.35311101 8.35311101 8.35311101 8.35311101 8.35311101 8.35311101 8.35311101 8.35311101 8.27665030 8.22668515 8.22792251 8.26081094 8.29792523 8.32483727 8.34000582 8.34727881 8.35044322 8.35178922 8.35237922 8.35263662 8.35276040 8.35284542 8.35291254 8.35295035 8.35295035 8.35291254 8.35284542 8.35276040 8.35263662 8.35237922 8.35178922 8.35044322 8.34727881 8.34000582 8.32483727 8.29792523 8.26081094 8.22792251 8.22668515 8.27665030 8.35311101 8.35311101 8.35311101 8.35311101 8.35311101 8.35311101 8.35311101 8.28561360 8.22615149 8.21803992 8.25285374 8.29619867 8.32678113 8.34263984 8.34932568 8.35177755 8.35261068 8.35289794 8.35300532 8.35304617 8.35306402 8.35307665 8.35308685 8.35309241 8.35309241 8.35308685 8.35307665 8.35306402 8.35304617 8.35300532 8.35289794 8.35261068 8.35177755 8.34932568 8.34263984 8.32678113 8.29619867 8.25285374 8.21803992 8.22615149 8.28561360 8.35311101 8.35311101 8.35311101 8.35311101 8.35311101 8.35311101 8.25548517 8.21017618 8.23210442 8.28185468 8.32140080 8.34178844 8.34969080 8.35218251 8.35286383 8.35303767 8.35308452 8.35309925 8.35310411 8.35310605 8.35310751 8.35310871 8.35310934 8.35310934 8.35310871 8.35310751 8.35310605 8.35310411 8.35309925 8.35308452 8.35303767 8.35286383 8.35218251 8.34969080 8.34178844 8.32140080 8.28185468 8.23210442 8.21017618 8.25548517 8.35311101 8.35311101 8.35311101 8.35311101 8.35311101 8.35311101 8.24374360 8.21241794 8.25083334 8.30268477 8.33483387 8.34797294 8.35193983 8.35288227 8.35306860 8.35310189 8.35310832 8.35310995 8.35311041 8.35311057 8.35311071 8.35311083 8.35311088 8.35311088 8.35311083 8.35311071 8.35311057 8.35311041 8.35310995 8.35310832 8.35310189 8.35306860 8.35288227 8.35193983 8.34797294 8.33483387 8.30268477 8.25083334 8.21241794 8.24374360 8.35311101 8.35311101 8.35311101 8.35311101 8.35311101 8.31360014 8.23004235 8.21435545 8.26132737 8.31234878 8.34006201 8.34996293 8.35252095 8.35302221 8.35309944 8.35310935 8.35311064 8.35311088 8.35311093 8.35311095 8.35311097 8.35311099 8.35311100 8.35311100 8.35311099 8.35311097 8.35311095 8.35311093 8.35311088 8.35311064 8.35310935 8.35309944 8.35302221 8.35252095 8.34996293 8.34006201 8.31234878 8.26132737 8.21435545 8.23004235 8.31360014 8.35311101 8.35311101 8.35311101 8.35311101 8.31360014 8.23004235 8.21435545 8.26132737 8.31234878 8.34006201 8.34996293 8.35252095 8.35302221 8.35309944 8.35310935 8.35311064 8.35311088 8.35311093 8.35311095 8.35311097 8.35311099 8.35311100 8.35311100 8.35311099 8.35311097 8.35311095 8.35311093 8.35311088 8.35311064 8.35310935 8.35309944 8.35302221 8.35252095 8.34996293 8.34006201 8.31234878 8.26132737 8.21435545 8.23004235 8.31360014 8.35311101 8.35311101 8.35311101 8.35311101 8.35311101 8.24374360 8.21241794 8.25083334 8.30268477 8.33483387 8.34797294 8.35193983 8.35288227 8.35306860 8.35310189 8.35310832 8.35310995 8.35311041 8.35311057 8.35311071 8.35311083 8.35311088 8.35311088 8.35311083 8.35311071 8.35311057 8.35311041 8.35310995 8.35310832 8.35310189 8.35306860 8.35288227 8.35193983 8.34797294 8.33483387 8.30268477 8.25083334 8.21241794 8.24374360 8.35311101 8.35311101 8.35311101 8.35311101 8.35311101 8.35311101 8.25548517 8.21017618 8.23210442 8.28185468 8.32140080 8.34178844 8.34969080 8.35218251 8.35286383 8.35303767 8.35308452 8.35309925 8.35310411 8.35310605 8.35310751 8.35310871 8.35310934 8.35310934 8.35310871 8.35310751 8.35310605 8.35310411 8.35309925 8.35308452 8.35303767 8.35286383 8.35218251 8.34969080 8.34178844 8.32140080 8.28185468 8.23210442 8.21017618 8.25548517 8.35311101 8.35311101 8.35311101 8.35311101 8.35311101 8.35311101 8.28561360 8.22615149 8.21803992 8.25285374 8.29619867 8.32678113 8.34263984 8.34932568 8.35177755 8.35261068 8.35289794 8.35300532 8.35304617 8.35306402 8.35307665 8.35308685 8.35309241 8.35309241 8.35308685 8.35307665 8.35306402 8.35304617 8.35300532 8.35289794 8.35261068 8.35177755 8.34932568 8.34263984 8.32678113 8.29619867 8.25285374 8.21803992 8.22615149 8.28561360 8.35311101 8.35311101 8.35311101 8.35311101 8.35311101 8.35311101 8.35311101 8.27665030 8.22668515 8.22792251 8.26081094 8.29792523 8.32483727 8.34000582 8.34727881 8.35044322 8.35178922 8.35237922 8.35263662 8.35276040 8.35284542 8.35291254 8.35295035 8.35295035 8.35291254 8.35284542 8.35276040 8.35263662 8.35237922 8.35178922 8.35044322 8.34727881 8.34000582 8.32483727 8.29792523 8.26081094 8.22792251 8.22668515 8.27665030 8.35311101 8.35311101 8.35311101 8.35311101 8.35311101 8.35311101 8.35311101 8.35311101 8.35311101 8.26463332 8.22664924 8.22980237 8.25773442 8.29088467 8.31681368 8.33315553 8.34217321 8.34684181 8.34923712 8.35043776 8.35107512 8.35151019 8.35184745 8.35204236 8.35204236 8.35184745 8.35151019 8.35107512 8.35043776 8.34923712 8.34684181 8.34217321 8.33315553 8.31681368 8.29088467 8.25773442 8.22980237 8.22664924 8.26463332 8.35311101 8.35311101 8.35311101 8.35311101 8.35311101 8.35311101 8.35311101 8.35311101 8.35311101 8.35311101 8.31016586 8.26544849 8.23018881 8.22646191 8.24766944 8.27597276 8.30115722 8.31922218 8.33065848 8.33760652 8.34165717 8.34404351 8.34567903 8.34692811 8.34766842 8.34766842 8.34692811 8.34567903 8.34404351 8.34165717 8.33760652 8.33065848 8.31922218 8.30115722 8.27597276 8.24766944 8.22646191 8.23018881 8.26544849 8.31016586 8.35311101 8.35311101 8.35311101 8.35311101 8.35311101 8.35311101 8.35311101 8.35311101 8.35311101 8.35311101 8.35311101 8.35311101 8.27992501 8.23473271 8.22464713 8.23351972 8.25426897 8.27628436 8.29398102 8.30732179 8.31671613 8.32291386 8.32713048 8.33027885 8.33221301 8.33221301 8.33027885 8.32713048 8.32291386 8.31671613 8.30732179 8.29398102 8.27628436 8.25426897 8.23351972 8.22464713 8.23473271 8.27992501 8.35311101 8.35311101 8.35311101 8.35311101 8.35311101 8.35311101 8.35311101 8.35311101 8.35311101 8.35311101 8.35311101 8.35311101 8.35311101 8.35311101 8.35311101 8.28914356 8.25719785 8.22882178 8.22482066 8.23271399 8.24392357 8.25771036 8.27114666 8.28121740 8.28740388 8.29160831 8.29444409 8.29444409 8.29160831 8.28740388 8.28121740 8.27114666 8.25771036 8.24392357 8.23271399 8.22482066 8.22882178 8.25719785 8.28914356 8.35311101 8.35311101 8.35311101 8.35311101 8.35311101 8.35311101 8.35311101 8.35311101 8.35311101 8.35311101 8.35311101 8.35311101 8.35311101 8.35311101 8.35311101 8.35311101 8.35311101 8.35311101 8.28495195 8.25738100 8.23644060 8.22284629 8.22346045 8.23241516 8.24011618 8.24070548 8.23887588 8.23879107 8.23879107 8.23887588 8.24070548 8.24011618 8.23241516 8.22346045 8.22284629 8.23644060 8.25738100 8.28495195 8.35311101 8.35311101 8.35311101 8.35311101 8.35311101 8.35311101 8.35311101 8.35311101 8.35311101 8.35311101 8.35311101 8.35311101 8.35311101 8.35311101 8.35311101 8.35311101 8.35311101 8.35311101 8.35311101 8.35311101 8.35311101 8.35311101 8.30528141 8.27038458 8.25753900 8.25712964 8.25593780 8.23830163 8.21955116 8.21083786 8.21083786 8.21955116 8.23830163 8.25593780 8.25712964 8.25753900 8.27038458 8.30528141 8.35311101 8.35311101 8.35311101 8.35311101 8.35311101 8.35311101 8.35311101 8.35311101 8.35311101 8.35311101 8.35311101 8.35311101 8.35311101 8.35311101 8.35311101 8.35311101 8.35311101 8.35311101 8.35311101 8.35311101 8.35311101 8.35311101 8.35311101 8.35311101 8.35311101 8.35311101 8.35311101 8.35311101 8.35311101 8.30597077 8.27276052 8.25883894 8.25883894 8.27276052 8.30597077 8.35311101 8.35311101 8.35311101 8.35311101 8.35311101 8.35311101 8.35311101 8.35311101 8.35311101 8.35311101 8.35311101 8.35311101 8.35311101 8.35311101 8.35311101 8.35311101 8.35311101 8.35311101 8.35311101 8.35311101 8.35311101 8.35311101 8.35311101 8.35311101 8.35311101 8.35311101 8.35311101 8.35311101 8.35311101 8.35311101 8.35311101 8.35311101 8.35311101 8.35311101 8.35311101 8.35311101 8.35311101 8.35311101 8.35311101 8.35311101 8.35311101 8.35311101 8.35311101 8.35311101 8.35311101 8.35311101 8.35311101 8.35311101 8.35311101 8.35311101 8.35311101 8.35311101 8.35311101 8.35311101 8.35311101 8.35311101 8.35311101 8.35311101 8.35311101 8.35311101 8.35311101 8.35311101 8.35311101 8.35311101 8.35311101 8.35311101 8.35311101 8.35311101 8.35311101 8.35311101 8.35311101 8.35311101 8.35311101 8.35311101 8.35311101 8.35311101 8.35311101 8.35311101 8.35311101 8.35311101 8.35311101 8.35311101 8.35311101 8.35311101 8.35311101 8.35311101 8.35311101 8.35311101 8.35311101 8.35311101 8.35311101 8.35311101 8.35311101 8.35311101 8.35311101 8.35311101 8.35311101 8.35311101 8.35311101 8.35311101 8.35311101 8.35311101 8.35311101 8.35311101 8.35311101 8.35311101 8.35311101 8.35311101 8.35311101 8.35311101 8.35311101 8.35311101 8.35311101 8.35311101 8.35311101 8.35311101 8.35311101 8.35311101 8.35311101 8.35311101 8.35311101 8.35311101 8.35311101 8.35311101 8.35311101 8.35311101 8.35311101 8.35311101 8.35311101 8.35311101 8.35311101 8.35311101 8.35311101 8.35311101 8.35311101 8.35311101 8.35311101 8.35311101 8.35311101 8.35311101 8.35311101 8.35311101 8.35311101 8.35311101 8.35311101 8.35311101 8.35311101 8.35311101 8.35311101 8.35311101 8.35311101 8.35311101 8.35311101 8.35311101 8.35311101 8.35311101 8.35311101 8.35311101 8.35311101 8.35311101 8.35311101 8.35311101 8.35311101 8.35311101 8.35311101 8.35311101 8.35311101 8.35311101 8.35311101 8.35311101 8.35311101 8.35311101 8.35311101 8.35311101 8.35311101 8.35311101 8.35311101 8.35311101 8.35311101 8.35311101 8.35311101 8.35311101 8.35311101 8.35311101 8.35311101 8.35311101 8.35311101 8.35311101 8.35311101 8.35311101 8.35311101 8.35311101 8.35311101 8.35311101 8.35311101 8.35311101 8.35311101 8.35311101 8.35311101 8.35311101 8.35311101 8.35311101 8.35311101 8.35311101 8.35311101 8.35311101 8.35311101 8.35311101 8.35311101 8.35311101 8.35311101 8.35311101 8.35311101 8.35311101 8.35311101 8.35311101 8.35311101 8.35311101 8.35311101 8.35311101 8.35311101 8.35311101 8.35311101 8.35311101 8.35311101 8.35311101 8.35311101 8.35311101 8.35311101 8.35311101 8.35311101 8.35311101 8.35311101 8.35311101 8.35311101 8.35311101 8.35311101 8.35311101 8.35311101 8.35311101 8.35311101 8.35311101 8.35311101 8.35311101 8.35311101 8.35311101 8.35311101 8.35311101 8.35311101 8.35311101 8.35311101 8.35311101 8.35311101 8.35311101 8.35311101 8.35311101 8.35311101 8.35311101 8.35311101 8.35311101 8.35311101 8.35311101 8.35311101 8.35311101 8.35311101 8.35311101 8.35311101 8.35311101 8.35311101 8.35311101 8.35311101 8.35311101 8.35311101 8.35311101 8.35311101 8.35311101 8.35311101 8.35311101 8.35311101 8.35311101 8.35311101 8.35311101 8.35311101 8.35311101 8.35311101 8.35311101 8.35311101 8.35311101 8.35311101 8.35311101 8.35311101 8.35311101 8.35311101 8.35311101 8.35311101 8.35311101 8.35311101 8.35311101 8.35311101 8.35311101 8.35311101 8.35311101 8.35311101 8.35311101 8.35311101 8.35311101 8.35311101 8.35311101 8.35311101 8.35311101 8.35311101 8.35311101 8.35311101 8.35311101 8.35311101 8.35311101 8.35311101 8.35311101 8.35311101 8.35311101 8.35311101 8.35311101 8.35311101 8.35311101 8.35311101 8.35311101 8.35311101 8.35311101 8.35311101 8.35311101 8.35311101 8.35311101 8.35311101 8.35311101 8.35311101 8.35311101 8.35311101 