# vtk DataFile Version 3.0
VTK - Matlab export
ASCII
DATASET STRUCTURED_POINTS
DIMENSIONS 40 40 1
SPACING 1 1 1
ORIGIN 0 0 0
POINT_DATA 1600
SCALARS lambda-2 float 1
LOOKUP_TABLE default
8.35311101 8.35311101 8.35311101 8.35311101 8.35311101 8.35311101 8.35311101 8.35311101 8.35311101 8.35311101 8.35311101 8.35311101 8.35311101 8.35311101 8.35311101 8.35311101 8.35311101 8.35311101 8.35311101 8.35311101 8.35311101 8.35311101 8.35311101 8.35311101 8.35311101 8.35311101 8.35311101 8.35311101 8.35311101 8.35311101 8.35311101 8.35311101 8.35311101 8.35311101 8.35311101 8.35311101 8.35311101 8.35311101 8.35311101 8.35311101 8.35311101 8.35311101 8.35311101 8.35311101 8.35311101 8.35311101 8.35311101 8.35311101 8.35311101 8.35311101 8.35311101 8.35311101 8.35311101 8.35311101 8.35311101 8.35311101 8.35311101 8.35311101 8.35311101 8.35311101 8.35311101 8.35311101 8.35311101 8.35311101 8.35311101 8.35311101 8.35311101 8.35311101 8.35311101 8.35311101 8.35311101 8.35311101 8.35311101 8.35311101 8.35311101 8.35311101 8.35311101 8.35311101 8.35311101 8.35311101 8.35311101 8.35311101 8.35311101 8.35311101 8.35311101 8.35311101 8.35311101 8.35311101 8.35311101 8.35311101 8.35311101 8.35311101 8.35311101 8.35311101 8.35311101 8.35311101 8.35311101 8.35311101 8.35311101 8.35311101 8.35311101 8.35311101 8.35311101 8.35311101 8.35311101 8.35311101 8.35311101 8.35311101 8.35311101 8.35311101 8.35311101 8.35311101 8.35311101 8.35311101 8.35311101 8.35311101 8.35311101 8.35311101 8.35311101 8.35311101 8.35311101 8.35311101 8.35311101 8.35311101 8.35311101 8.35311101 8.35311101 8.35311101 8.35311101 8.35311101 8.35311101 8.35311101 8.35311101 8.35311101 8.35311101 8.35311101 8.35311101 8.35311101 8.35311101 8.35311101 8.35311101 8.35311101 8.35311101 8.35311101 8.35311101 8.35311101 8.35311101 8.35311101 8.35311101 8.35311101 8.35311101 8.35311101 8.35311101 8.35311101 8.35311101 8.35311101 8.35311101 8.35311101 8.35311101 8.35311101 8.35311101 8.35311101 8.35311101 8.35311101 8.35311101 8.35311101 8.35311101 8.35311101 8.35311101 8.35311101 8.35311101 8.35311101 8.35311101 8.35311101 8.35311101 8.35311101 8.35311101 8.35311101 8.35311101 8.35311101 8.35311101 8.35311101 8.35311101 8.35311101 8.35311101 8.35311101 8.35311101 8.35311101 8.35311101 8.35311101 8.35311101 8.35311101 8.35311101 8.35311101 8.35311101 8.35311101 8.35311101 8.35311101 8.35311101 8.35311101 8.35311101 8.35311101 8.35311101 8.35311101 8.35311101 8.35311101 8.35311101 8.35311101 8.35311101 8.35311101 8.35311101 8.35311101 8.35311101 8.35311101 8.35311101 8.35311101 8.35311101 8.35311101 8.35311101 8.35311101 8.35311101 8.35311101 8.35311101 8.35311101 8.35311101 8.35311101 8.35311101 8.35311101 8.35311101 8.35311101 8.35311101 8.35311101 8.35311101 8.35311101 8.35311101 8.35311101 8.35311101 8.35311101 8.35311101 8.35311101 8.35311101 8.35311101 8.35311101 8.35311101 8.35311101 8.35311101 8.35311101 8.35311101 8.35311101 8.35311101 8.35311101 8.35311101 8.35311101 8.35311101 8.35311101 8.35311101 8.35311101 8.35311101 8.35311101 8.35311101 8.35311101 8.35311101 8.35311101 8.35311101 8.35311101 8.35311101 8.35311101 8.35311101 8.35311101 8.35311101 8.35311101 8.35311101 8.35311101 8.35311101 8.35311101 8.35311101 8.35311101 8.35311101 8.35311101 8.35311101 8.35311101 8.35311101 8.35311101 8.35311101 8.35311101 8.35311101 8.35311101 8.35311101 8.35311101 8.35311101 8.35311101 8.35311101 8.35311101 8.35311101 8.35311101 8.35311101 8.35311101 8.35311101 8.35311101 8.35311101 8.35311101 8.35311101 8.35311101 8.35311101 8.35311101 8.35311101 8.35311101 8.35311101 8.35311101 8.35311101 8.35311101 8.35311101 8.35311101 8.35311101 8.35311101 8.35311101 8.35311101 8.35311101 8.35311101 8.35311101 8.35311101 8.35311101 8.35311101 8.35311101 8.35311101 8.35311101 8.35311101 8.35311101 8.35311101 8.35311101 8.35311101 8.35311101 8.35311101 8.35311101 8.35311101 8.35311101 8.35311101 8.35095947 8.34979662 8.34937041 8.34937041 8.34979662 8.35095947 8.35311101 8.35311101 8.35311101 8.35311101 8.35311101 8.35311101 8.35311101 8.35311101 8.35311101 8.35311101 8.35311101 8.35311101 8.35311101 8.35311101 8.35311101 8.35311101 8.35311101 8.35311101 8.35311101 8.35311101 8.35311101 8.35311101 8.35311101 8.35311101 8.35311101 8.35311101 8.35311101 8.35311101 8.35311101 8.35083773 8.34914051 8.34812043 8.34744855 8.34684208 8.34583536 8.34501665 8.34462208 8.34462208 8.34501665 8.34583536 8.34684208 8.34744855 8.34812043 8.34914051 8.35083773 8.35311101 8.35311101 8.35311101 8.35311101 8.35311101 8.35311101 8.35311101 8.35311101 8.35311101 8.35311101 8.35311101 8.35311101 8.35311101 8.35311101 8.35311101 8.35311101 8.35311101 8.35311101 8.35311101 8.35311101 8.35311101 8.35311101 8.34972641 8.34781771 8.34590060 8.34416617 8.34286404 8.34191479 8.34115542 8.34043625 8.33987024 8.33957483 8.33957483 8.33987024 8.34043625 8.34115542 8.34191479 8.34286404 8.34416617 8.34590060 8.34781771 8.34972641 8.35311101 8.35311101 8.35311101 8.35311101 8.35311101 8.35311101 8.35311101 8.35311101 8.35311101 8.35311101 8.35311101 8.35311101 8.35311101 8.35311101 8.35311101 8.35311101 8.35311101 8.35311101 8.34994873 8.34763412 8.34488723 8.34262061 8.34068061 8.33904604 8.33778070 8.33684423 8.33614165 8.33559264 8.33519999 8.33499668 8.33499668 8.33519999 8.33559264 8.33614165 8.33684423 8.33778070 8.33904604 8.34068061 8.34262061 8.34488723 8.34763412 8.34994873 8.35311101 8.35311101 8.35311101 8.35311101 8.35311101 8.35311101 8.35311101 8.35311101 8.35311101 8.35311101 8.35311101 8.35311101 8.35311101 8.35311101 8.35311101 8.34909670 8.34562151 8.34262783 8.33989818 8.33762782 8.33580844 8.33439740 8.33336223 8.33263781 8.33213922 8.33179478 8.33157071 8.33145937 8.33145937 8.33157071 8.33179478 8.33213922 8.33263781 8.33336223 8.33439740 8.33580844 8.33762782 8.33989818 8.34262783 8.34562151 8.34909670 8.35311101 8.35311101 8.35311101 8.35311101 8.35311101 8.35311101 8.35311101 8.35311101 8.35311101 8.35311101 8.35311101 8.35311101 8.35116103 8.34830226 8.34455851 8.34098094 8.33784689 8.33522025 8.33316525 8.33165769 8.33062312 8.32997123 8.32960108 8.32941348 8.32932789 8.32929248 8.32928033 8.32928033 8.32929248 8.32932789 8.32941348 8.32960108 8.32997123 8.33062312 8.33165769 8.33316525 8.33522025 8.33784689 8.34098094 8.34455851 8.34830226 8.35116103 8.35311101 8.35311101 8.35311101 8.35311101 8.35311101 8.35311101 8.35311101 8.35311101 8.35311101 8.35311101 8.34837990 8.34422681 8.34019913 8.33656146 8.33351761 8.33115857 8.32949555 8.32845973 8.32793121 8.32777158 8.32784464 8.32803115 8.32823904 8.32840651 8.32849808 8.32849808 8.32840651 8.32823904 8.32803115 8.32784464 8.32777158 8.32793121 8.32845973 8.32949555 8.33115857 8.33351761 8.33656146 8.34019913 8.34422681 8.34837990 8.35311101 8.35311101 8.35311101 8.35311101 8.35311101 8.35311101 8.35311101 8.35311101 8.35311101 8.34936401 8.34488099 8.34040897 8.33624364 8.33266362 8.32985773 8.32789692 8.32674429 8.32627780 8.32632663 8.32670822 8.32725515 8.32783063 8.32833435 8.32870067 8.32889211 8.32889211 8.32870067 8.32833435 8.32783063 8.32725515 8.32670822 8.32632663 8.32627780 8.32674429 8.32789692 8.32985773 8.33266362 8.33624364 8.34040897 8.34488099 8.34936401 8.35311101 8.35311101 8.35311101 8.35311101 8.35311101 8.35311101 8.35311101 8.35045090 8.34640237 8.34174254 8.33709777 8.33290283 8.32947200 8.32698674 8.32548670 8.32488565 8.32500727 8.32563133 8.32653654 8.32753048 8.32846427 8.32923437 8.32977629 8.33005477 8.33005477 8.32977629 8.32923437 8.32846427 8.32753048 8.32653654 8.32563133 8.32500727 8.32488565 8.32548670 8.32698674 8.32947200 8.33290283 8.33709777 8.34174254 8.34640237 8.35045090 8.35311101 8.35311101 8.35311101 8.35311101 8.35311101 8.35311101 8.34894522 8.34424667 8.33927841 8.33449616 8.33032410 8.32707767 8.32492269 8.32386501 8.32377225 8.32441961 8.32554462 8.32689520 8.32826119 8.32948713 8.33047034 8.33115053 8.33149682 8.33149682 8.33115053 8.33047034 8.32948713 8.32826119 8.32689520 8.32554462 8.32441961 8.32377225 8.32386501 8.32492269 8.32707767 8.33032410 8.33449616 8.33927841 8.34424667 8.34894522 8.35311101 8.35311101 8.35311101 8.35311101 8.35311101 8.35311101 8.34797894 8.34280133 8.33759013 8.33271628 8.32858391 8.32549996 8.32361352 8.32290197 8.32319697 8.32423724 8.32572969 8.32740121 8.32903071 8.33046016 8.33158957 8.33236341 8.33275525 8.33275525 8.33236341 8.33158957 8.33046016 8.32903071 8.32740121 8.32572969 8.32423724 8.32319697 8.32290197 8.32361352 8.32549996 8.32858391 8.33271628 8.33759013 8.34280133 8.34797894 8.35311101 8.35311101 8.35311101 8.35311101 8.35311101 8.35158680 8.34719552 8.34201273 8.33672156 8.33181273 8.32771030 8.32472095 8.32298455 8.32246251 8.32296678 8.32421654 8.32590267 8.32774145 8.32950676 8.33103996 8.33224313 8.33306382 8.33347830 8.33347830 8.33306382 8.33224313 8.33103996 8.32950676 8.32774145 8.32590267 8.32421654 8.32296678 8.32246251 8.32298455 8.32472095 8.32771030 8.33181273 8.33672156 8.34201273 8.34719552 8.35158680 8.35311101 8.35311101 8.35311101 8.35311101 8.35158680 8.34719552 8.34201273 8.33672156 8.33181273 8.32771030 8.32472095 8.32298455 8.32246251 8.32296678 8.32421654 8.32590267 8.32774145 8.32950676 8.33103996 8.33224313 8.33306382 8.33347830 8.33347830 8.33306382 8.33224313 8.33103996 8.32950676 8.32774145 8.32590267 8.32421654 8.32296678 8.32246251 8.32298455 8.32472095 8.32771030 8.33181273 8.33672156 8.34201273 8.34719552 8.35158680 8.35311101 8.35311101 8.35311101 8.35311101 8.35311101 8.34797894 8.34280133 8.33759013 8.33271628 8.32858391 8.32549996 8.32361352 8.32290197 8.32319697 8.32423724 8.32572969 8.32740121 8.32903071 8.33046016 8.33158957 8.33236341 8.33275525 8.33275525 8.33236341 8.33158957 8.33046016 8.32903071 8.32740121 8.32572969 8.32423724 8.32319697 8.32290197 8.32361352 8.32549996 8.32858391 8.33271628 8.33759013 8.34280133 8.34797894 8.35311101 8.35311101 8.35311101 8.35311101 8.35311101 8.35311101 8.34894522 8.34424667 8.33927841 8.33449616 8.33032410 8.32707767 8.32492269 8.32386501 8.32377225 8.32441961 8.32554462 8.32689520 8.32826119 8.32948713 8.33047034 8.33115053 8.33149682 8.33149682 8.33115053 8.33047034 8.32948713 8.32826119 8.32689520 8.32554462 8.32441961 8.32377225 8.32386501 8.32492269 8.32707767 8.33032410 8.33449616 8.33927841 8.34424667 8.34894522 8.35311101 8.35311101 8.35311101 8.35311101 8.35311101 8.35311101 8.35045090 8.34640237 8.34174254 8.33709777 8.33290283 8.32947200 8.32698674 8.32548670 8.32488565 8.32500727 8.32563133 8.32653654 8.32753048 8.32846427 8.32923437 8.32977629 8.33005477 8.33005477 8.32977629 8.32923437 8.32846427 8.32753048 8.32653654 8.32563133 8.32500727 8.32488565 8.32548670 8.32698674 8.32947200 8.33290283 8.33709777 8.34174254 8.34640237 8.35045090 8.35311101 8.35311101 8.35311101 8.35311101 8.35311101 8.35311101 8.35311101 8.34936401 8.34488099 8.34040897 8.33624364 8.33266362 8.32985773 8.32789692 8.32674429 8.32627780 8.32632663 8.32670822 8.32725515 8.32783063 8.32833435 8.32870067 8.32889211 8.32889211 8.32870067 8.32833435 8.32783063 8.32725515 8.32670822 8.32632663 8.32627780 8.32674429 8.32789692 8.32985773 8.33266362 8.33624364 8.34040897 8.34488099 8.34936401 8.35311101 8.35311101 8.35311101 8.35311101 8.35311101 8.35311101 8.35311101 8.35311101 8.35311101 8.34837990 8.34422681 8.34019913 8.33656146 8.33351761 8.33115857 8.32949555 8.32845973 8.32793121 8.32777158 8.32784464 8.32803115 8.32823904 8.32840651 8.32849808 8.32849808 8.32840651 8.32823904 8.32803115 8.32784464 8.32777158 8.32793121 8.32845973 8.32949555 8.33115857 8.33351761 8.33656146 8.34019913 8.34422681 8.34837990 8.35311101 8.35311101 8.35311101 8.35311101 8.35311101 8.35311101 8.35311101 8.35311101 8.35311101 8.35311101 8.35116103 8.34830226 8.34455851 8.34098094 8.33784689 8.33522025 8.33316525 8.33165769 8.33062312 8.32997123 8.32960108 8.32941348 8.32932789 8.32929248 8.32928033 8.32928033 8.32929248 8.32932789 8.32941348 8.32960108 8.32997123 8.33062312 8.33165769 8.33316525 8.33522025 8.33784689 8.34098094 8.34455851 8.34830226 8.35116103 8.35311101 8.35311101 8.35311101 8.35311101 8.35311101 8.35311101 8.35311101 8.35311101 8.35311101 8.35311101 8.35311101 8.35311101 8.34909670 8.34562151 8.34262783 8.33989818 8.33762782 8.33580844 8.33439740 8.33336223 8.33263781 8.33213922 8.33179478 8.33157071 8.33145937 8.33145937 8.33157071 8.33179478 8.33213922 8.33263781 8.33336223 8.33439740 8.33580844 8.33762782 8.33989818 8.34262783 8.34562151 8.34909670 8.35311101 8.35311101 8.35311101 8.35311101 8.35311101 8.35311101 8.35311101 8.35311101 8.35311101 8.35311101 8.35311101 8.35311101 8.35311101 8.35311101 8.35311101 8.34994873 8.34763412 8.34488723 8.34262061 8.34068061 8.33904604 8.33778070 8.33684423 8.33614165 8.33559264 8.33519999 8.33499668 8.33499668 8.33519999 8.33559264 8.33614165 8.33684423 8.33778070 8.33904604 8.34068061 8.34262061 8.34488723 8.34763412 8.34994873 8.35311101 8.35311101 8.35311101 8.35311101 8.35311101 8.35311101 8.35311101 8.35311101 8.35311101 8.35311101 8.35311101 8.35311101 8.35311101 8.35311101 8.35311101 8.35311101 8.35311101 8.35311101 8.34972641 8.34781771 8.34590060 8.34416617 8.34286404 8.34191479 8.34115542 8.34043625 8.33987024 8.33957483 8.33957483 8.33987024 8.34043625 8.34115542 8.34191479 8.34286404 8.34416617 8.34590060 8.34781771 8.34972641 8.35311101 8.35311101 8.35311101 8.35311101 8.35311101 8.35311101 8.35311101 8.35311101 8.35311101 8.35311101 8.35311101 8.35311101 8.35311101 8.35311101 8.35311101 8.35311101 8.35311101 8.35311101 8.35311101 8.35311101 8.35311101 8.35311101 8.35083773 8.34914051 8.34812043 8.34744855 8.34684208 8.34583536 8.34501665 8.34462208 8.34462208 8.34501665 8.34583536 8.34684208 8.34744855 8.34812043 8.34914051 8.35083773 8.35311101 8.35311101 8.35311101 8.35311101 8.35311101 8.35311101 8.35311101 8.35311101 8.35311101 8.35311101 8.35311101 8.35311101 8.35311101 8.35311101 8.35311101 8.35311101 8.35311101 8.35311101 8.35311101 8.35311101 8.35311101 8.35311101 8.35311101 8.35311101 8.35311101 8.35311101 8.35311101 8.35311101 8.35311101 8.35095947 8.34979662 8.34937041 8.34937041 8.34979662 8.35095947 8.35311101 8.35311101 8.35311101 8.35311101 8.35311101 8.35311101 8.35311101 8.35311101 8.35311101 8.35311101 8.35311101 8.35311101 8.35311101 8.35311101 8.35311101 8.35311101 8.35311101 8.35311101 8.35311101 8.35311101 8.35311101 8.35311101 8.35311101 8.35311101 8.35311101 8.35311101 8.35311101 8.35311101 8.35311101 8.35311101 8.35311101 8.35311101 8.35311101 8.35311101 8.35311101 8.35311101 8.35311101 8.35311101 8.35311101 8.35311101 8.35311101 8.35311101 8.35311101 8.35311101 8.35311101 8.35311101 8.35311101 8.35311101 8.35311101 8.35311101 8.35311101 8.35311101 8.35311101 8.35311101 8.35311101 8.35311101 8.35311101 8.35311101 8.35311101 8.35311101 8.35311101 8.35311101 8.35311101 8.35311101 8.35311101 8.35311101 8.35311101 8.35311101 8.35311101 8.35311101 8.35311101 8.35311101 8.35311101 8.35311101 8.35311101 8.35311101 8.35311101 8.35311101 8.35311101 8.35311101 8.35311101 8.35311101 8.35311101 8.35311101 8.35311101 8.35311101 8.35311101 8.35311101 8.35311101 8.35311101 8.35311101 8.35311101 8.35311101 8.35311101 8.35311101 8.35311101 8.35311101 8.35311101 8.35311101 8.35311101 8.35311101 8.35311101 8.35311101 8.35311101 8.35311101 8.35311101 8.35311101 8.35311101 8.35311101 8.35311101 8.35311101 8.35311101 8.35311101 8.35311101 8.35311101 8.35311101 8.35311101 8.35311101 8.35311101 8.35311101 8.35311101 8.35311101 8.35311101 8.35311101 8.35311101 8.35311101 8.35311101 8.35311101 8.35311101 8.35311101 8.35311101 8.35311101 8.35311101 8.35311101 8.35311101 8.35311101 8.35311101 8.35311101 8.35311101 8.35311101 8.35311101 8.35311101 8.35311101 8.35311101 8.35311101 8.35311101 8.35311101 8.35311101 8.35311101 8.35311101 8.35311101 8.35311101 8.35311101 8.35311101 8.35311101 8.35311101 8.35311101 8.35311101 8.35311101 8.35311101 8.35311101 8.35311101 8.35311101 8.35311101 8.35311101 8.35311101 8.35311101 8.35311101 8.35311101 8.35311101 8.35311101 8.35311101 8.35311101 8.35311101 8.35311101 8.35311101 8.35311101 8.35311101 8.35311101 8.35311101 8.35311101 8.35311101 8.35311101 8.35311101 8.35311101 8.35311101 8.35311101 8.35311101 8.35311101 8.35311101 8.35311101 8.35311101 8.35311101 8.35311101 8.35311101 8.35311101 8.35311101 8.35311101 8.35311101 8.35311101 8.35311101 8.35311101 8.35311101 8.35311101 8.35311101 8.35311101 8.35311101 8.35311101 8.35311101 8.35311101 8.35311101 8.35311101 8.35311101 8.35311101 8.35311101 8.35311101 8.35311101 8.35311101 8.35311101 8.35311101 8.35311101 8.35311101 8.35311101 8.35311101 8.35311101 8.35311101 8.35311101 8.35311101 8.35311101 8.35311101 8.35311101 8.35311101 8.35311101 8.35311101 8.35311101 8.35311101 8.35311101 8.35311101 8.35311101 8.35311101 8.35311101 8.35311101 8.35311101 8.35311101 8.35311101 8.35311101 8.35311101 8.35311101 8.35311101 8.35311101 8.35311101 8.35311101 8.35311101 8.35311101 8.35311101 8.35311101 8.35311101 8.35311101 8.35311101 8.35311101 8.35311101 8.35311101 8.35311101 8.35311101 8.35311101 8.35311101 8.35311101 8.35311101 8.35311101 8.35311101 8.35311101 8.35311101 8.35311101 8.35311101 8.35311101 8.35311101 8.35311101 8.35311101 8.35311101 8.35311101 8.35311101 8.35311101 8.35311101 8.35311101 8.35311101 8.35311101 8.35311101 8.35311101 8.35311101 8.35311101 8.35311101 8.35311101 8.35311101 8.35311101 8.35311101 8.35311101 8.35311101 8.35311101 8.35311101 8.35311101 8.35311101 8.35311101 8.35311101 8.35311101 8.35311101 8.35311101 8.35311101 8.35311101 8.35311101 8.35311101 8.35311101 8.35311101 8.35311101 8.35311101 8.35311101 8.35311101 8.35311101 8.35311101 8.35311101 8.35311101 8.35311101 8.35311101 8.35311101 8.35311101 8.35311101 8.35311101 8.35311101 8.35311101 8.35311101 8.35311101 8.35311101 8.35311101 8.35311101 8.35311101 8.35311101 8.35311101 8.35311101 