# vtk DataFile Version 3.0
VTK - Matlab export
ASCII
DATASET STRUCTURED_POINTS
DIMENSIONS 40 40 1
SPACING 1 1 1
ORIGIN 0 0 0
POINT_DATA 1600
SCALARS Temperature float 1
LOOKUP_TABLE default
200.00000000 200.00000000 200.00000000 200.00000000 200.00000000 200.00000000 200.00000000 200.00000000 200.00000000 200.00000000 200.00000000 200.00000000 200.00000000 200.00000000 200.00000000 200.00000000 200.00000000 200.00000000 200.00000000 200.00000000 200.00000000 200.00000000 200.00000000 200.00000000 200.00000000 200.00000000 200.00000000 200.00000000 200.00000000 200.00000000 200.00000000 200.00000000 200.00000000 200.00000000 200.00000000 200.00000000 200.00000000 200.00000000 200.00000000 200.00000000 200.00000000 200.00000000 200.00000000 200.00000000 200.00000000 200.00000000 200.00000000 200.00000000 200.00000000 200.00000000 200.00000000 200.00000000 200.00000000 200.00000000 200.00000000 200.00000000 200.00000000 200.00000000 200.00000000 200.00000000 200.00000000 200.00000000 200.00000000 200.00000000 200.00000000 200.00000000 200.00000000 200.00000000 200.00000000 200.00000000 200.00000000 200.00000000 200.00000000 200.00000000 200.00000000 200.00000000 200.00000000 200.00000000 200.00000000 200.00000000 200.00000000 200.00000000 200.00000000 200.00000000 200.00000000 200.00000000 200.00000000 200.00000000 200.00000000 200.00000000 200.00000000 200.00000000 200.00000000 200.00000000 200.00000000 200.00000000 200.00000000 200.00000000 200.00000000 200.00000000 200.00000000 200.00000000 200.00000000 200.00000000 200.00000000 200.00000000 200.00000000 200.00000000 200.00000000 200.00000000 200.00000000 200.00000000 200.00000000 200.00000000 200.00000000 200.00000000 200.00000000 200.00000000 200.00000000 200.00000000 200.00000000 200.00000000 200.00000000 200.00000000 200.00000000 200.00000000 200.00000000 200.00000000 200.00000000 200.00000000 200.00000000 200.00000000 200.00000000 200.00000000 200.00000000 200.00000000 200.00000000 200.00000000 200.00000000 200.00000000 200.00000000 200.00000000 200.00000000 200.00000000 200.00000000 200.00000000 200.00000000 200.00000000 200.00000000 200.00000000 200.00000000 200.00000000 200.00000000 200.00000000 200.00000000 200.00000000 200.00000000 200.00000000 200.00000000 200.00000000 200.00000000 200.00000000 200.00000000 200.00000000 200.00000000 200.00000000 200.00000000 200.00000000 200.00000000 200.00000000 200.00000000 200.00000000 200.00000000 200.00000000 200.00000000 200.00000000 200.00000000 200.00000000 200.00000000 200.00000000 200.00000000 200.00000000 200.00000000 200.00000000 200.00000000 200.00000000 200.00000000 200.00000000 200.00000000 200.00000000 200.00000000 200.00000000 200.00000000 200.00000000 200.00000000 200.00000000 200.00000000 200.00000000 200.00000000 200.00000000 200.00000000 200.00000000 200.00000000 200.00000000 200.00000000 200.00000000 200.00000000 200.00000000 200.00000000 200.00000000 200.00000000 200.00000000 200.00000000 200.00000000 200.00000000 200.00000000 200.00000000 200.00000000 200.00000000 200.00000000 200.00000000 200.00000000 200.00000000 200.00000000 200.00000000 200.00000000 200.00000000 200.00000000 200.00000000 200.00000000 200.00000000 200.00000000 200.00000000 200.00000000 200.00000000 200.00000000 200.00000000 200.00000000 200.00000000 200.00000000 200.00000000 200.00000000 200.00000000 200.00000000 200.00000000 200.00000000 200.00000000 200.00000000 200.00000000 200.00000000 200.00000000 200.00000000 200.00000000 200.00000000 200.00000000 200.00000000 200.00000000 200.00000000 200.00000000 200.00000000 200.00000000 200.00000000 200.00000000 200.00000000 200.00000000 200.00000000 200.00000000 200.00000000 200.00000000 200.00000000 200.00000000 200.00000000 200.00000000 200.00000000 200.00000000 200.00000000 200.00000000 200.00000000 200.00000000 200.00000000 200.00000000 200.00000000 200.00000000 200.00000000 200.00000000 200.00000000 200.00000000 200.00000000 200.00000000 200.00000000 200.00000000 200.00000000 200.00000000 200.00000000 200.00000000 200.00000000 200.00000000 200.00000000 200.00000000 200.00000000 200.00000000 200.00000000 200.00000000 200.00000000 200.00000000 200.00000000 200.00000000 200.00000000 200.00000000 200.00000000 200.00000000 200.00000000 200.00000000 200.00000000 200.00000000 200.00000000 200.00000000 200.00000000 200.00000000 200.00000000 200.00000000 200.00000000 200.00000000 200.00000000 200.00000000 200.00000000 200.00000000 200.00000000 200.00000000 200.00000000 200.00000000 200.00000000 200.00000000 200.00000000 200.00000000 200.00000000 200.00000000 216.98142031 226.10134263 229.44035981 229.44035981 226.10134263 216.98142031 200.00000000 200.00000000 200.00000000 200.00000000 200.00000000 200.00000000 200.00000000 200.00000000 200.00000000 200.00000000 200.00000000 200.00000000 200.00000000 200.00000000 200.00000000 200.00000000 200.00000000 200.00000000 200.00000000 200.00000000 200.00000000 200.00000000 200.00000000 200.00000000 200.00000000 200.00000000 200.00000000 200.00000000 200.00000000 216.77200126 229.77080117 238.12877311 244.10571699 249.62256835 258.08450965 264.85574806 268.12592419 268.12592419 264.85574806 258.08450965 249.62256835 244.10571699 238.12877311 229.77080117 216.77200126 200.00000000 200.00000000 200.00000000 200.00000000 200.00000000 200.00000000 200.00000000 200.00000000 200.00000000 200.00000000 200.00000000 200.00000000 200.00000000 200.00000000 200.00000000 200.00000000 200.00000000 200.00000000 200.00000000 200.00000000 200.00000000 200.00000000 223.75424436 238.07006578 253.27781058 267.81534595 279.65727458 289.10148129 297.03176107 304.28894414 309.84092522 312.72508647 312.72508647 309.84092522 304.28894414 297.03176107 289.10148129 279.65727458 267.81534595 253.27781058 238.07006578 223.75424436 200.00000000 200.00000000 200.00000000 200.00000000 200.00000000 200.00000000 200.00000000 200.00000000 200.00000000 200.00000000 200.00000000 200.00000000 200.00000000 200.00000000 200.00000000 200.00000000 200.00000000 200.00000000 220.85087145 237.18052921 257.66877464 276.14233824 293.49146854 309.51008022 323.32997129 334.79547635 344.15485884 351.62310975 356.91846390 359.65001977 359.65001977 356.91846390 351.62310975 344.15485884 334.79547635 323.32997129 309.51008022 293.49146854 276.14233824 257.66877464 237.18052921 220.85087145 200.00000000 200.00000000 200.00000000 200.00000000 200.00000000 200.00000000 200.00000000 200.00000000 200.00000000 200.00000000 200.00000000 200.00000000 200.00000000 200.00000000 200.00000000 225.49741691 249.04819752 271.30269076 293.73790258 314.87400496 334.37271069 351.95573942 367.20899386 379.95816331 390.23602031 398.09558697 403.45506740 406.17428976 406.17428976 403.45506740 398.09558697 390.23602031 379.95816331 367.20899386 351.95573942 334.37271069 314.87400496 293.73790258 271.30269076 249.04819752 225.49741691 200.00000000 200.00000000 200.00000000 200.00000000 200.00000000 200.00000000 200.00000000 200.00000000 200.00000000 200.00000000 200.00000000 200.00000000 211.48757331 229.13972587 253.72126213 279.44729680 304.92394055 329.70246338 352.97289958 374.23104017 393.14170536 409.44181082 423.00940048 433.84490358 441.98565903 447.43575633 450.17032680 450.17032680 447.43575633 441.98565903 433.84490358 423.00940048 409.44181082 393.14170536 374.23104017 352.97289958 329.70246338 304.92394055 279.44729680 253.72126213 229.13972587 211.48757331 200.00000000 200.00000000 200.00000000 200.00000000 200.00000000 200.00000000 200.00000000 200.00000000 200.00000000 200.00000000 227.51757887 253.32010268 280.86762243 309.13401466 337.08450387 363.91430694 388.89174439 411.49236926 431.38241129 448.37226911 462.40229264 473.50772452 481.76232568 487.23167542 489.95680545 489.95680545 487.23167542 481.76232568 473.50772452 462.40229264 448.37226911 431.38241129 411.49236926 388.89174439 363.91430694 337.08450387 309.13401466 280.86762243 253.32010268 227.51757887 200.00000000 200.00000000 200.00000000 200.00000000 200.00000000 200.00000000 200.00000000 200.00000000 200.00000000 220.87296828 247.19109133 275.76629617 305.85161695 336.40151031 366.37418470 394.86775102 421.15041854 444.70713188 465.23373902 482.60105547 496.81479430 507.96751541 516.18666792 521.59222008 524.27213253 524.27213253 521.59222008 516.18666792 507.96751541 496.81479430 482.60105547 465.23373902 444.70713188 421.15041854 394.86775102 366.37418470 336.40151031 305.85161695 275.76629617 247.19109133 220.87296828 200.00000000 200.00000000 200.00000000 200.00000000 200.00000000 200.00000000 200.00000000 214.29444942 236.86368777 264.61275353 295.28723007 327.46186331 359.89709330 391.47360283 421.24125123 448.46426425 472.64784194 493.52832868 511.03478839 525.23706775 536.28868396 544.37233913 549.65625676 552.26532523 552.26532523 549.65625676 544.37233913 536.28868396 525.23706775 511.03478839 493.52832868 472.64784194 448.46426425 421.24125123 391.47360283 359.89709330 327.46186331 295.28723007 264.61275353 236.86368777 214.29444942 200.00000000 200.00000000 200.00000000 200.00000000 200.00000000 200.00000000 222.20777595 248.32938336 278.24630188 310.77927619 344.62440980 378.51081994 411.27917204 441.95589311 469.80746836 494.36275850 515.39868008 532.89664666 546.98298949 557.86530052 565.77427239 570.91769190 573.44900479 573.44900479 570.91769190 565.77427239 557.86530052 546.98298949 532.89664666 515.39868008 494.36275850 469.80746836 441.95589311 411.27917204 378.51081994 344.62440980 310.77927619 278.24630188 248.32938336 222.20777595 200.00000000 200.00000000 200.00000000 200.00000000 200.00000000 200.00000000 227.21529180 255.96082563 287.59927771 321.50502860 356.52205439 391.39477759 424.95006373 456.20527700 484.43260127 509.18143146 530.26101600 547.69256324 561.64454141 572.36458589 580.11840004 585.14186040 587.60811252 587.60811252 585.14186040 580.11840004 572.36458589 561.64454141 547.69256324 530.26101600 509.18143146 484.43260127 456.20527700 424.95006373 391.39477759 356.52205439 321.50502860 287.59927771 255.96082563 227.21529180 200.00000000 200.00000000 200.00000000 200.00000000 200.00000000 207.95651518 231.23946146 260.09781250 292.41508691 326.99780094 362.60989755 397.97978158 431.92528024 463.46019934 491.86089094 516.68857954 537.77037453 555.14898577 569.01538554 579.63844584 587.30226928 592.25730112 594.68676456 594.68676456 592.25730112 587.30226928 579.63844584 569.01538554 555.14898577 537.77037453 516.68857954 491.86089094 463.46019934 431.92528024 397.97978158 362.60989755 326.99780094 292.41508691 260.09781250 231.23946146 207.95651518 200.00000000 200.00000000 200.00000000 200.00000000 207.95651518 231.23946146 260.09781250 292.41508691 326.99780094 362.60989755 397.97978158 431.92528024 463.46019934 491.86089094 516.68857954 537.77037453 555.14898577 569.01538554 579.63844584 587.30226928 592.25730112 594.68676456 594.68676456 592.25730112 587.30226928 579.63844584 569.01538554 555.14898577 537.77037453 516.68857954 491.86089094 463.46019934 431.92528024 397.97978158 362.60989755 326.99780094 292.41508691 260.09781250 231.23946146 207.95651518 200.00000000 200.00000000 200.00000000 200.00000000 200.00000000 227.21529180 255.96082563 287.59927771 321.50502860 356.52205439 391.39477759 424.95006373 456.20527700 484.43260127 509.18143146 530.26101600 547.69256324 561.64454141 572.36458589 580.11840004 585.14186040 587.60811252 587.60811252 585.14186040 580.11840004 572.36458589 561.64454141 547.69256324 530.26101600 509.18143146 484.43260127 456.20527700 424.95006373 391.39477759 356.52205439 321.50502860 287.59927771 255.96082563 227.21529180 200.00000000 200.00000000 200.00000000 200.00000000 200.00000000 200.00000000 222.20777595 248.32938336 278.24630188 310.77927619 344.62440980 378.51081994 411.27917204 441.95589311 469.80746836 494.36275850 515.39868008 532.89664666 546.98298949 557.86530052 565.77427239 570.91769190 573.44900479 573.44900479 570.91769190 565.77427239 557.86530052 546.98298949 532.89664666 515.39868008 494.36275850 469.80746836 441.95589311 411.27917204 378.51081994 344.62440980 310.77927619 278.24630188 248.32938336 222.20777595 200.00000000 200.00000000 200.00000000 200.00000000 200.00000000 200.00000000 214.29444942 236.86368777 264.61275353 295.28723007 327.46186331 359.89709330 391.47360283 421.24125123 448.46426425 472.64784194 493.52832868 511.03478839 525.23706775 536.28868396 544.37233913 549.65625676 552.26532523 552.26532523 549.65625676 544.37233913 536.28868396 525.23706775 511.03478839 493.52832868 472.64784194 448.46426425 421.24125123 391.47360283 359.89709330 327.46186331 295.28723007 264.61275353 236.86368777 214.29444942 200.00000000 200.00000000 200.00000000 200.00000000 200.00000000 200.00000000 200.00000000 220.87296828 247.19109133 275.76629617 305.85161695 336.40151031 366.37418470 394.86775102 421.15041854 444.70713188 465.23373902 482.60105547 496.81479430 507.96751541 516.18666792 521.59222008 524.27213253 524.27213253 521.59222008 516.18666792 507.96751541 496.81479430 482.60105547 465.23373902 444.70713188 421.15041854 394.86775102 366.37418470 336.40151031 305.85161695 275.76629617 247.19109133 220.87296828 200.00000000 200.00000000 200.00000000 200.00000000 200.00000000 200.00000000 200.00000000 200.00000000 200.00000000 227.51757887 253.32010268 280.86762243 309.13401466 337.08450387 363.91430694 388.89174439 411.49236926 431.38241129 448.37226911 462.40229264 473.50772452 481.76232568 487.23167542 489.95680545 489.95680545 487.23167542 481.76232568 473.50772452 462.40229264 448.37226911 431.38241129 411.49236926 388.89174439 363.91430694 337.08450387 309.13401466 280.86762243 253.32010268 227.51757887 200.00000000 200.00000000 200.00000000 200.00000000 200.00000000 200.00000000 200.00000000 200.00000000 200.00000000 200.00000000 211.48757331 229.13972587 253.72126213 279.44729680 304.92394055 329.70246338 352.97289958 374.23104017 393.14170536 409.44181082 423.00940048 433.84490358 441.98565903 447.43575633 450.17032680 450.17032680 447.43575633 441.98565903 433.84490358 423.00940048 409.44181082 393.14170536 374.23104017 352.97289958 329.70246338 304.92394055 279.44729680 253.72126213 229.13972587 211.48757331 200.00000000 200.00000000 200.00000000 200.00000000 200.00000000 200.00000000 200.00000000 200.00000000 200.00000000 200.00000000 200.00000000 200.00000000 225.49741691 249.04819752 271.30269076 293.73790258 314.87400496 334.37271069 351.95573942 367.20899386 379.95816331 390.23602031 398.09558697 403.45506740 406.17428976 406.17428976 403.45506740 398.09558697 390.23602031 379.95816331 367.20899386 351.95573942 334.37271069 314.87400496 293.73790258 271.30269076 249.04819752 225.49741691 200.00000000 200.00000000 200.00000000 200.00000000 200.00000000 200.00000000 200.00000000 200.00000000 200.00000000 200.00000000 200.00000000 200.00000000 200.00000000 200.00000000 200.00000000 220.85087145 237.18052921 257.66877464 276.14233824 293.49146854 309.51008022 323.32997129 334.79547635 344.15485884 351.62310975 356.91846390 359.65001977 359.65001977 356.91846390 351.62310975 344.15485884 334.79547635 323.32997129 309.51008022 293.49146854 276.14233824 257.66877464 237.18052921 220.85087145 200.00000000 200.00000000 200.00000000 200.00000000 200.00000000 200.00000000 200.00000000 200.00000000 200.00000000 200.00000000 200.00000000 200.00000000 200.00000000 200.00000000 200.00000000 200.00000000 200.00000000 200.00000000 223.75424436 238.07006578 253.27781058 267.81534595 279.65727458 289.10148129 297.03176107 304.28894414 309.84092522 312.72508647 312.72508647 309.84092522 304.28894414 297.03176107 289.10148129 279.65727458 267.81534595 253.27781058 238.07006578 223.75424436 200.00000000 200.00000000 200.00000000 200.00000000 200.00000000 200.00000000 200.00000000 200.00000000 200.00000000 200.00000000 200.00000000 200.00000000 200.00000000 200.00000000 200.00000000 200.00000000 200.00000000 200.00000000 200.00000000 200.00000000 200.00000000 200.00000000 216.77200126 229.77080117 238.12877311 244.10571699 249.62256835 258.08450965 264.85574806 268.12592419 268.12592419 264.85574806 258.08450965 249.62256835 244.10571699 238.12877311 229.77080117 216.77200126 200.00000000 200.00000000 200.00000000 200.00000000 200.00000000 200.00000000 200.00000000 200.00000000 200.00000000 200.00000000 200.00000000 200.00000000 200.00000000 200.00000000 200.00000000 200.00000000 200.00000000 200.00000000 200.00000000 200.00000000 200.00000000 200.00000000 200.00000000 200.00000000 200.00000000 200.00000000 200.00000000 200.00000000 200.00000000 216.98142031 226.10134263 229.44035981 229.44035981 226.10134263 216.98142031 200.00000000 200.00000000 200.00000000 200.00000000 200.00000000 200.00000000 200.00000000 200.00000000 200.00000000 200.00000000 200.00000000 200.00000000 200.00000000 200.00000000 200.00000000 200.00000000 200.00000000 200.00000000 200.00000000 200.00000000 200.00000000 200.00000000 200.00000000 200.00000000 200.00000000 200.00000000 200.00000000 200.00000000 200.00000000 200.00000000 200.00000000 200.00000000 200.00000000 200.00000000 200.00000000 200.00000000 200.00000000 200.00000000 200.00000000 200.00000000 200.00000000 200.00000000 200.00000000 200.00000000 200.00000000 200.00000000 200.00000000 200.00000000 200.00000000 200.00000000 200.00000000 200.00000000 200.00000000 200.00000000 200.00000000 200.00000000 200.00000000 200.00000000 200.00000000 200.00000000 200.00000000 200.00000000 200.00000000 200.00000000 200.00000000 200.00000000 200.00000000 200.00000000 200.00000000 200.00000000 200.00000000 200.00000000 200.00000000 200.00000000 200.00000000 200.00000000 200.00000000 200.00000000 200.00000000 200.00000000 200.00000000 200.00000000 200.00000000 200.00000000 200.00000000 200.00000000 200.00000000 200.00000000 200.00000000 200.00000000 200.00000000 200.00000000 200.00000000 200.00000000 200.00000000 200.00000000 200.00000000 200.00000000 200.00000000 200.00000000 200.00000000 200.00000000 200.00000000 200.00000000 200.00000000 200.00000000 200.00000000 200.00000000 200.00000000 200.00000000 200.00000000 200.00000000 200.00000000 200.00000000 200.00000000 200.00000000 200.00000000 200.00000000 200.00000000 200.00000000 200.00000000 200.00000000 200.00000000 200.00000000 200.00000000 200.00000000 200.00000000 200.00000000 200.00000000 200.00000000 200.00000000 200.00000000 200.00000000 200.00000000 200.00000000 200.00000000 200.00000000 200.00000000 200.00000000 200.00000000 200.00000000 200.00000000 200.00000000 200.00000000 200.00000000 200.00000000 200.00000000 200.00000000 200.00000000 200.00000000 200.00000000 200.00000000 200.00000000 200.00000000 200.00000000 200.00000000 200.00000000 200.00000000 200.00000000 200.00000000 200.00000000 200.00000000 200.00000000 200.00000000 200.00000000 200.00000000 200.00000000 200.00000000 200.00000000 200.00000000 200.00000000 200.00000000 200.00000000 200.00000000 200.00000000 200.00000000 200.00000000 200.00000000 200.00000000 200.00000000 200.00000000 200.00000000 200.00000000 200.00000000 200.00000000 200.00000000 200.00000000 200.00000000 200.00000000 200.00000000 200.00000000 200.00000000 200.00000000 200.00000000 200.00000000 200.00000000 200.00000000 200.00000000 200.00000000 200.00000000 200.00000000 200.00000000 200.00000000 200.00000000 200.00000000 200.00000000 200.00000000 200.00000000 200.00000000 200.00000000 200.00000000 200.00000000 200.00000000 200.00000000 200.00000000 200.00000000 200.00000000 200.00000000 200.00000000 200.00000000 200.00000000 200.00000000 200.00000000 200.00000000 200.00000000 200.00000000 200.00000000 200.00000000 200.00000000 200.00000000 200.00000000 200.00000000 200.00000000 200.00000000 200.00000000 200.00000000 200.00000000 200.00000000 200.00000000 200.00000000 200.00000000 200.00000000 200.00000000 200.00000000 200.00000000 200.00000000 200.00000000 200.00000000 200.00000000 200.00000000 200.00000000 200.00000000 200.00000000 200.00000000 200.00000000 200.00000000 200.00000000 200.00000000 200.00000000 200.00000000 200.00000000 200.00000000 200.00000000 200.00000000 200.00000000 200.00000000 200.00000000 200.00000000 200.00000000 200.00000000 200.00000000 200.00000000 200.00000000 200.00000000 200.00000000 200.00000000 200.00000000 200.00000000 200.00000000 200.00000000 200.00000000 200.00000000 200.00000000 200.00000000 200.00000000 200.00000000 200.00000000 200.00000000 200.00000000 200.00000000 200.00000000 200.00000000 200.00000000 200.00000000 200.00000000 200.00000000 200.00000000 200.00000000 200.00000000 200.00000000 200.00000000 200.00000000 200.00000000 200.00000000 200.00000000 200.00000000 200.00000000 200.00000000 200.00000000 200.00000000 200.00000000 200.00000000 200.00000000 200.00000000 200.00000000 200.00000000 200.00000000 200.00000000 200.00000000 200.00000000 200.00000000 200.00000000 200.00000000 200.00000000 200.00000000 200.00000000 200.00000000 200.00000000 200.00000000 200.00000000 200.00000000 200.00000000 200.00000000 200.00000000 200.00000000 200.00000000 200.00000000 