# vtk DataFile Version 3.0
VTK - Matlab export
ASCII
DATASET STRUCTURED_POINTS
DIMENSIONS 40 40 1
SPACING 1 1 1
ORIGIN 0 0 0
POINT_DATA 1600
SCALARS Proofstrength float 1
LOOKUP_TABLE default
140.71398941 140.71398941 140.71398941 140.71398941 140.71398941 140.71398941 140.71398941 140.71398941 140.71398941 140.71398941 140.71398941 140.71398941 140.71398941 140.71398941 140.71398941 140.71398941 140.71398941 140.71398941 140.71398941 140.71398941 140.71398941 140.71398941 140.71398941 140.71398941 140.71398941 140.71398941 140.71398941 140.71398941 140.71398941 140.71398941 140.71398941 140.71398941 140.71398941 140.71398941 140.71398941 140.71398941 140.71398941 140.71398941 140.71398941 140.71398941 140.71398941 140.71398941 140.71398941 140.71398941 140.71398941 140.71398941 140.71398941 140.71398941 140.71398941 140.71398941 140.71398941 140.71398941 140.71398941 140.71398941 140.71398941 140.71398941 140.71398941 140.71398941 140.71398941 140.71398941 140.71398941 140.71398941 140.71398941 140.71398941 140.71398941 140.71398941 140.71398941 140.71398941 140.71398941 140.71398941 140.71398941 140.71398941 140.71398941 140.71398941 140.71398941 140.71398941 140.71398941 140.71398941 140.71398941 140.71398941 140.71398941 140.71398941 140.71398941 140.71398941 140.71398941 140.71398941 140.71398941 140.71398941 140.71398941 140.71398941 140.71398941 140.71398941 140.71398941 140.71398941 140.71398941 140.71398941 140.71398941 140.71398941 140.71398941 140.71398941 140.71398941 140.71398941 140.71398941 140.71398941 140.71398941 140.71398941 140.71398941 140.71398941 140.71398941 140.71398941 140.71398941 140.71398941 140.71398941 140.71398941 140.71398941 140.71398941 140.71398941 140.71398941 140.71398941 140.71398941 140.71398941 140.71398941 140.71398941 140.71398941 140.71398941 140.71398941 140.71398941 140.71398941 140.71398941 140.71398941 140.71398941 140.71398941 140.71398941 140.71398941 140.71398941 140.71398941 140.71398941 140.71398941 140.71398941 140.71398941 140.71398941 140.71398941 140.71398941 140.71398941 140.71398941 140.71398941 140.71398941 140.71398941 140.71398941 140.71398941 140.71398941 140.71398941 140.71398941 140.71398941 140.71398941 140.71398941 140.71398941 140.71398941 140.71398941 140.71398941 140.71398941 140.71398941 140.71398941 140.71398941 140.71398941 140.71398941 140.71398941 140.71398941 140.71398941 140.71398941 140.71398941 140.71398941 140.71398941 140.71398941 140.71398941 140.71398941 140.71398941 140.71398941 140.71398941 140.71398941 140.71398941 140.71398941 140.71398941 140.71398941 140.71398941 140.71398941 140.71398941 140.71398941 140.71398941 140.71398941 140.71398941 140.71398941 140.71398941 140.71398941 140.71398941 140.71398941 140.71398941 140.71398941 140.71398941 140.71398941 140.71398941 140.71398941 140.71398941 140.71398941 140.71398941 140.71398941 140.71398941 140.71398941 140.71398941 140.71398941 140.71398941 140.71398941 140.71398941 140.71398941 140.71398941 140.71398941 140.71398941 140.71398941 140.71398941 140.71398941 140.71398941 140.71398941 140.71398941 140.71398941 140.71398941 140.71398941 140.71398941 140.71398941 140.71398941 140.71398941 140.71398941 140.71398941 140.71398941 140.71398941 140.71398941 140.71398941 140.71398941 140.71398941 140.71398941 140.71398941 140.71398941 140.71398941 140.71398941 140.71398941 140.71398941 140.71398941 140.71398941 140.71398941 140.71398941 140.71398941 140.71398941 140.71398941 140.71398941 140.71398941 140.71398941 140.71398941 140.71398941 140.71398941 140.71398941 140.71398941 140.71398941 140.71398941 140.71398941 140.71398941 140.71398941 140.71398941 140.71398941 140.71398941 140.71398941 140.71398941 140.71398941 140.71398941 140.71398941 140.71398941 140.71398941 140.71398941 140.71398941 140.71398941 140.71398941 140.71398941 140.71398941 140.71398941 140.71398941 140.71398941 140.71398941 140.71398941 140.71398941 140.71398941 140.71398941 140.71398941 140.71398941 140.71398941 140.71398941 140.71398941 140.71398941 140.71398941 140.71398941 140.71398941 140.71398941 140.71398941 140.71398941 140.71398941 140.71398941 140.71398941 140.71398941 140.71398941 140.71398941 140.71398941 140.71398941 140.71398941 140.71398941 140.71398941 140.71398941 140.71398941 140.71398941 140.71398941 140.71398941 140.71398941 140.71398941 140.71398941 140.71398941 140.71398941 140.71398941 140.71398941 140.71398941 140.71398941 140.71398941 140.71398941 140.71398941 140.71398941 140.71398941 140.71398941 140.71398941 140.71398941 140.71398941 140.71398941 140.71398941 140.71787360 140.71999897 140.72078478 140.72078478 140.71999897 140.71787360 140.71398941 140.71398941 140.71398941 140.71398941 140.71398941 140.71398941 140.71398941 140.71398941 140.71398941 140.71398941 140.71398941 140.71398941 140.71398941 140.71398941 140.71398941 140.71398941 140.71398941 140.71398941 140.71398941 140.71398941 140.71398941 140.71398941 140.71398941 140.71398941 140.71398941 140.71398941 140.71398941 140.71398941 140.71398941 140.71809165 140.72115203 140.72296466 140.72413070 140.72518265 140.72698667 140.72847311 140.72919367 140.72919367 140.72847311 140.72698667 140.72518265 140.72413070 140.72296466 140.72115203 140.71809165 140.71398941 140.71398941 140.71398941 140.71398941 140.71398941 140.71398941 140.71398941 140.71398941 140.71398941 140.71398941 140.71398941 140.71398941 140.71398941 140.71398941 140.71398941 140.71398941 140.71398941 140.71398941 140.71398941 140.71398941 140.71398941 140.71398941 140.72009492 140.72349911 140.72688623 140.72991490 140.73213006 140.73369217 140.73492558 140.73612673 140.73709353 140.73760263 140.73760263 140.73709353 140.73612673 140.73492558 140.73369217 140.73213006 140.72991490 140.72688623 140.72349911 140.72009492 140.71398941 140.71398941 140.71398941 140.71398941 140.71398941 140.71398941 140.71398941 140.71398941 140.71398941 140.71398941 140.71398941 140.71398941 140.71398941 140.71398941 140.71398941 140.71398941 140.71398941 140.71398941 140.71971658 140.72383951 140.72867710 140.73255799 140.73577913 140.73840680 140.74034905 140.74170873 140.74269028 140.74346353 140.74403107 140.74432952 140.74432952 140.74403107 140.74346353 140.74269028 140.74170873 140.74034905 140.73840680 140.73577913 140.73255799 140.72867710 140.72383951 140.71971658 140.71398941 140.71398941 140.71398941 140.71398941 140.71398941 140.71398941 140.71398941 140.71398941 140.71398941 140.71398941 140.71398941 140.71398941 140.71398941 140.71398941 140.71398941 140.72127815 140.72746603 140.73261417 140.73712962 140.74068525 140.74334779 140.74525174 140.74650385 140.74726118 140.74770700 140.74798817 140.74816970 140.74826131 140.74826131 140.74816970 140.74798817 140.74770700 140.74726118 140.74650385 140.74525174 140.74334779 140.74068525 140.73712962 140.73261417 140.72746603 140.72127815 140.71398941 140.71398941 140.71398941 140.71398941 140.71398941 140.71398941 140.71398941 140.71398941 140.71398941 140.71398941 140.71398941 140.71398941 140.71760666 140.72280901 140.72945430 140.73554224 140.74055342 140.74442342 140.74712149 140.74879086 140.74965493 140.74993989 140.74986441 140.74962228 140.74935776 140.74915374 140.74904586 140.74904586 140.74915374 140.74935776 140.74962228 140.74986441 140.74993989 140.74965493 140.74879086 140.74712149 140.74442342 140.74055342 140.73554224 140.72945430 140.72280901 140.71760666 140.71398941 140.71398941 140.71398941 140.71398941 140.71398941 140.71398941 140.71398941 140.71398941 140.71398941 140.71398941 140.72277369 140.73023785 140.73710732 140.74285420 140.74715174 140.74995727 140.75140981 140.75178703 140.75141967 140.75061930 140.74964656 140.74869960 140.74791174 140.74735894 140.74707634 140.74707634 140.74735894 140.74791174 140.74869960 140.74964656 140.75061930 140.75141967 140.75178703 140.75140981 140.74995727 140.74715174 140.74285420 140.73710732 140.73023785 140.72277369 140.71398941 140.71398941 140.71398941 140.71398941 140.71398941 140.71398941 140.71398941 140.71398941 140.71398941 140.72105903 140.72928751 140.73708451 140.74377668 140.74884623 140.75207026 140.75353400 140.75354507 140.75252718 140.75091399 140.74907509 140.74728629 140.74573055 140.74451418 140.74368883 140.74327375 140.74327375 140.74368883 140.74451418 140.74573055 140.74728629 140.74907509 140.75091399 140.75252718 140.75354507 140.75353400 140.75207026 140.74884623 140.74377668 140.73708451 140.72928751 140.72105903 140.71398941 140.71398941 140.71398941 140.71398941 140.71398941 140.71398941 140.71398941 140.71909013 140.72669391 140.73508875 140.74287303 140.74912134 140.75330400 140.75530209 140.75535709 140.75394464 140.75162403 140.74891158 140.74620753 140.74377792 140.74177274 140.74025901 140.73925456 140.73875563 140.73875563 140.73925456 140.74025901 140.74177274 140.74377792 140.74620753 140.74891158 140.75162403 140.75394464 140.75535709 140.75530209 140.75330400 140.74912134 140.74287303 140.73508875 140.72669391 140.71909013 140.71398941 140.71398941 140.71398941 140.71398941 140.71398941 140.71398941 140.72199297 140.73078452 140.73957906 140.74728077 140.75300693 140.75628945 140.75712967 140.75592325 140.75329476 140.74991317 140.74635109 140.74301669 140.74015081 140.73786258 140.73617692 140.73507716 140.73453628 140.73453628 140.73507716 140.73617692 140.73786258 140.74015081 140.74301669 140.74635109 140.74991317 140.75329476 140.75592325 140.75712967 140.75628945 140.75300693 140.74728077 140.73957906 140.73078452 140.72199297 140.71398941 140.71398941 140.71398941 140.71398941 140.71398941 140.71398941 140.72385636 140.73351024 140.74260790 140.75020522 140.75548134 140.75803981 140.75798749 140.75584288 140.75234125 140.74822668 140.74410370 140.74037591 140.73725676 140.73481918 140.73305339 140.73191527 140.73135965 140.73135965 140.73191527 140.73305339 140.73481918 140.73725676 140.74037591 140.74410370 140.74822668 140.75234125 140.75584288 140.75798749 140.75803981 140.75548134 140.75020522 140.74260790 140.73351024 140.72385636 140.71398941 140.71398941 140.71398941 140.71398941 140.71398941 140.71694384 140.72537659 140.73499609 140.74415050 140.75165760 140.75667135 140.75882748 140.75829151 140.75564938 140.75169497 140.74720998 140.74281253 140.73890033 140.73566954 140.73317208 140.73137875 140.73023042 140.72967207 140.72967207 140.73023042 140.73137875 140.73317208 140.73566954 140.73890033 140.74281253 140.74720998 140.75169497 140.75564938 140.75829151 140.75882748 140.75667135 140.75165760 140.74415050 140.73499609 140.72537659 140.71694384 140.71398941 140.71398941 140.71398941 140.71398941 140.71694384 140.72537659 140.73499609 140.74415050 140.75165760 140.75667135 140.75882748 140.75829151 140.75564938 140.75169497 140.74720998 140.74281253 140.73890033 140.73566954 140.73317208 140.73137875 140.73023042 140.72967207 140.72967207 140.73023042 140.73137875 140.73317208 140.73566954 140.73890033 140.74281253 140.74720998 140.75169497 140.75564938 140.75829151 140.75882748 140.75667135 140.75165760 140.74415050 140.73499609 140.72537659 140.71694384 140.71398941 140.71398941 140.71398941 140.71398941 140.71398941 140.72385636 140.73351024 140.74260790 140.75020522 140.75548134 140.75803981 140.75798749 140.75584288 140.75234125 140.74822668 140.74410370 140.74037591 140.73725676 140.73481918 140.73305339 140.73191527 140.73135965 140.73135965 140.73191527 140.73305339 140.73481918 140.73725676 140.74037591 140.74410370 140.74822668 140.75234125 140.75584288 140.75798749 140.75803981 140.75548134 140.75020522 140.74260790 140.73351024 140.72385636 140.71398941 140.71398941 140.71398941 140.71398941 140.71398941 140.71398941 140.72199297 140.73078452 140.73957906 140.74728077 140.75300693 140.75628945 140.75712967 140.75592325 140.75329476 140.74991317 140.74635109 140.74301669 140.74015081 140.73786258 140.73617692 140.73507716 140.73453628 140.73453628 140.73507716 140.73617692 140.73786258 140.74015081 140.74301669 140.74635109 140.74991317 140.75329476 140.75592325 140.75712967 140.75628945 140.75300693 140.74728077 140.73957906 140.73078452 140.72199297 140.71398941 140.71398941 140.71398941 140.71398941 140.71398941 140.71398941 140.71909013 140.72669391 140.73508875 140.74287303 140.74912134 140.75330400 140.75530209 140.75535709 140.75394464 140.75162403 140.74891158 140.74620753 140.74377792 140.74177274 140.74025901 140.73925456 140.73875563 140.73875563 140.73925456 140.74025901 140.74177274 140.74377792 140.74620753 140.74891158 140.75162403 140.75394464 140.75535709 140.75530209 140.75330400 140.74912134 140.74287303 140.73508875 140.72669391 140.71909013 140.71398941 140.71398941 140.71398941 140.71398941 140.71398941 140.71398941 140.71398941 140.72105903 140.72928751 140.73708451 140.74377668 140.74884623 140.75207026 140.75353400 140.75354507 140.75252718 140.75091399 140.74907509 140.74728629 140.74573055 140.74451418 140.74368883 140.74327375 140.74327375 140.74368883 140.74451418 140.74573055 140.74728629 140.74907509 140.75091399 140.75252718 140.75354507 140.75353400 140.75207026 140.74884623 140.74377668 140.73708451 140.72928751 140.72105903 140.71398941 140.71398941 140.71398941 140.71398941 140.71398941 140.71398941 140.71398941 140.71398941 140.71398941 140.72277369 140.73023785 140.73710732 140.74285420 140.74715174 140.74995727 140.75140981 140.75178703 140.75141967 140.75061930 140.74964656 140.74869960 140.74791174 140.74735894 140.74707634 140.74707634 140.74735894 140.74791174 140.74869960 140.74964656 140.75061930 140.75141967 140.75178703 140.75140981 140.74995727 140.74715174 140.74285420 140.73710732 140.73023785 140.72277369 140.71398941 140.71398941 140.71398941 140.71398941 140.71398941 140.71398941 140.71398941 140.71398941 140.71398941 140.71398941 140.71760666 140.72280901 140.72945430 140.73554224 140.74055342 140.74442342 140.74712149 140.74879086 140.74965493 140.74993989 140.74986441 140.74962228 140.74935776 140.74915374 140.74904586 140.74904586 140.74915374 140.74935776 140.74962228 140.74986441 140.74993989 140.74965493 140.74879086 140.74712149 140.74442342 140.74055342 140.73554224 140.72945430 140.72280901 140.71760666 140.71398941 140.71398941 140.71398941 140.71398941 140.71398941 140.71398941 140.71398941 140.71398941 140.71398941 140.71398941 140.71398941 140.71398941 140.72127815 140.72746603 140.73261417 140.73712962 140.74068525 140.74334779 140.74525174 140.74650385 140.74726118 140.74770700 140.74798817 140.74816970 140.74826131 140.74826131 140.74816970 140.74798817 140.74770700 140.74726118 140.74650385 140.74525174 140.74334779 140.74068525 140.73712962 140.73261417 140.72746603 140.72127815 140.71398941 140.71398941 140.71398941 140.71398941 140.71398941 140.71398941 140.71398941 140.71398941 140.71398941 140.71398941 140.71398941 140.71398941 140.71398941 140.71398941 140.71398941 140.71971658 140.72383951 140.72867710 140.73255799 140.73577913 140.73840680 140.74034905 140.74170873 140.74269028 140.74346353 140.74403107 140.74432952 140.74432952 140.74403107 140.74346353 140.74269028 140.74170873 140.74034905 140.73840680 140.73577913 140.73255799 140.72867710 140.72383951 140.71971658 140.71398941 140.71398941 140.71398941 140.71398941 140.71398941 140.71398941 140.71398941 140.71398941 140.71398941 140.71398941 140.71398941 140.71398941 140.71398941 140.71398941 140.71398941 140.71398941 140.71398941 140.71398941 140.72009492 140.72349911 140.72688623 140.72991490 140.73213006 140.73369217 140.73492558 140.73612673 140.73709353 140.73760263 140.73760263 140.73709353 140.73612673 140.73492558 140.73369217 140.73213006 140.72991490 140.72688623 140.72349911 140.72009492 140.71398941 140.71398941 140.71398941 140.71398941 140.71398941 140.71398941 140.71398941 140.71398941 140.71398941 140.71398941 140.71398941 140.71398941 140.71398941 140.71398941 140.71398941 140.71398941 140.71398941 140.71398941 140.71398941 140.71398941 140.71398941 140.71398941 140.71809165 140.72115203 140.72296466 140.72413070 140.72518265 140.72698667 140.72847311 140.72919367 140.72919367 140.72847311 140.72698667 140.72518265 140.72413070 140.72296466 140.72115203 140.71809165 140.71398941 140.71398941 140.71398941 140.71398941 140.71398941 140.71398941 140.71398941 140.71398941 140.71398941 140.71398941 140.71398941 140.71398941 140.71398941 140.71398941 140.71398941 140.71398941 140.71398941 140.71398941 140.71398941 140.71398941 140.71398941 140.71398941 140.71398941 140.71398941 140.71398941 140.71398941 140.71398941 140.71398941 140.71398941 140.71787360 140.71999897 140.72078478 140.72078478 140.71999897 140.71787360 140.71398941 140.71398941 140.71398941 140.71398941 140.71398941 140.71398941 140.71398941 140.71398941 140.71398941 140.71398941 140.71398941 140.71398941 140.71398941 140.71398941 140.71398941 140.71398941 140.71398941 140.71398941 140.71398941 140.71398941 140.71398941 140.71398941 140.71398941 140.71398941 140.71398941 140.71398941 140.71398941 140.71398941 140.71398941 140.71398941 140.71398941 140.71398941 140.71398941 140.71398941 140.71398941 140.71398941 140.71398941 140.71398941 140.71398941 140.71398941 140.71398941 140.71398941 140.71398941 140.71398941 140.71398941 140.71398941 140.71398941 140.71398941 140.71398941 140.71398941 140.71398941 140.71398941 140.71398941 140.71398941 140.71398941 140.71398941 140.71398941 140.71398941 140.71398941 140.71398941 140.71398941 140.71398941 140.71398941 140.71398941 140.71398941 140.71398941 140.71398941 140.71398941 140.71398941 140.71398941 140.71398941 140.71398941 140.71398941 140.71398941 140.71398941 140.71398941 140.71398941 140.71398941 140.71398941 140.71398941 140.71398941 140.71398941 140.71398941 140.71398941 140.71398941 140.71398941 140.71398941 140.71398941 140.71398941 140.71398941 140.71398941 140.71398941 140.71398941 140.71398941 140.71398941 140.71398941 140.71398941 140.71398941 140.71398941 140.71398941 140.71398941 140.71398941 140.71398941 140.71398941 140.71398941 140.71398941 140.71398941 140.71398941 140.71398941 140.71398941 140.71398941 140.71398941 140.71398941 140.71398941 140.71398941 140.71398941 140.71398941 140.71398941 140.71398941 140.71398941 140.71398941 140.71398941 140.71398941 140.71398941 140.71398941 140.71398941 140.71398941 140.71398941 140.71398941 140.71398941 140.71398941 140.71398941 140.71398941 140.71398941 140.71398941 140.71398941 140.71398941 140.71398941 140.71398941 140.71398941 140.71398941 140.71398941 140.71398941 140.71398941 140.71398941 140.71398941 140.71398941 140.71398941 140.71398941 140.71398941 140.71398941 140.71398941 140.71398941 140.71398941 140.71398941 140.71398941 140.71398941 140.71398941 140.71398941 140.71398941 140.71398941 140.71398941 140.71398941 140.71398941 140.71398941 140.71398941 140.71398941 140.71398941 140.71398941 140.71398941 140.71398941 140.71398941 140.71398941 140.71398941 140.71398941 140.71398941 140.71398941 140.71398941 140.71398941 140.71398941 140.71398941 140.71398941 140.71398941 140.71398941 140.71398941 140.71398941 140.71398941 140.71398941 140.71398941 140.71398941 140.71398941 140.71398941 140.71398941 140.71398941 140.71398941 140.71398941 140.71398941 140.71398941 140.71398941 140.71398941 140.71398941 140.71398941 140.71398941 140.71398941 140.71398941 140.71398941 140.71398941 140.71398941 140.71398941 140.71398941 140.71398941 140.71398941 140.71398941 140.71398941 140.71398941 140.71398941 140.71398941 140.71398941 140.71398941 140.71398941 140.71398941 140.71398941 140.71398941 140.71398941 140.71398941 140.71398941 140.71398941 140.71398941 140.71398941 140.71398941 140.71398941 140.71398941 140.71398941 140.71398941 140.71398941 140.71398941 140.71398941 140.71398941 140.71398941 140.71398941 140.71398941 140.71398941 140.71398941 140.71398941 140.71398941 140.71398941 140.71398941 140.71398941 140.71398941 140.71398941 140.71398941 140.71398941 140.71398941 140.71398941 140.71398941 140.71398941 140.71398941 140.71398941 140.71398941 140.71398941 140.71398941 140.71398941 140.71398941 140.71398941 140.71398941 140.71398941 140.71398941 140.71398941 140.71398941 140.71398941 140.71398941 140.71398941 140.71398941 140.71398941 140.71398941 140.71398941 140.71398941 140.71398941 140.71398941 140.71398941 140.71398941 140.71398941 140.71398941 140.71398941 140.71398941 140.71398941 140.71398941 140.71398941 140.71398941 140.71398941 140.71398941 140.71398941 140.71398941 140.71398941 140.71398941 140.71398941 140.71398941 140.71398941 140.71398941 140.71398941 140.71398941 140.71398941 140.71398941 140.71398941 140.71398941 140.71398941 140.71398941 140.71398941 140.71398941 140.71398941 140.71398941 140.71398941 140.71398941 140.71398941 140.71398941 140.71398941 140.71398941 140.71398941 140.71398941 140.71398941 140.71398941 140.71398941 140.71398941 140.71398941 140.71398941 140.71398941 140.71398941 140.71398941 140.71398941 140.71398941 140.71398941 140.71398941 140.71398941 140.71398941 140.71398941 140.71398941 140.71398941 