# vtk DataFile Version 3.0
VTK - Matlab export
ASCII
DATASET STRUCTURED_POINTS
DIMENSIONS 40 40 1
SPACING 1 1 1
ORIGIN 0 0 0
POINT_DATA 1600
SCALARS Temperature float 1
LOOKUP_TABLE default
200.00000000 200.00000000 200.00000000 200.00000000 200.00000000 200.00000000 200.00000000 200.00000000 200.00000000 200.00000000 200.00000000 200.00000000 200.00000000 200.00000000 200.00000000 200.00000000 200.00000000 200.00000000 200.00000000 200.00000000 200.00000000 200.00000000 200.00000000 200.00000000 200.00000000 200.00000000 200.00000000 200.00000000 200.00000000 200.00000000 200.00000000 200.00000000 200.00000000 200.00000000 200.00000000 200.00000000 200.00000000 200.00000000 200.00000000 200.00000000 200.00000000 200.00000000 200.00000000 200.00000000 200.00000000 200.00000000 200.00000000 200.00000000 200.00000000 200.00000000 200.00000000 200.00000000 200.00000000 200.00000000 200.00000000 200.00000000 200.00000000 200.00000000 200.00000000 200.00000000 200.00000000 200.00000000 200.00000000 200.00000000 200.00000000 200.00000000 200.00000000 200.00000000 200.00000000 200.00000000 200.00000000 200.00000000 200.00000000 200.00000000 200.00000000 200.00000000 200.00000000 200.00000000 200.00000000 200.00000000 200.00000000 200.00000000 200.00000000 200.00000000 200.00000000 200.00000000 200.00000000 200.00000000 200.00000000 200.00000000 200.00000000 200.00000000 200.00000000 200.00000000 200.00000000 200.00000000 200.00000000 200.00000000 200.00000000 200.00000000 200.00000000 200.00000000 200.00000000 200.00000000 200.00000000 200.00000000 200.00000000 200.00000000 200.00000000 200.00000000 200.00000000 200.00000000 200.00000000 200.00000000 200.00000000 200.00000000 200.00000000 200.00000000 200.00000000 200.00000000 200.00000000 200.00000000 200.00000000 200.00000000 200.00000000 200.00000000 200.00000000 200.00000000 200.00000000 200.00000000 200.00000000 200.00000000 200.00000000 200.00000000 200.00000000 200.00000000 200.00000000 200.00000000 200.00000000 200.00000000 200.00000000 200.00000000 200.00000000 200.00000000 200.00000000 200.00000000 200.00000000 200.00000000 200.00000000 200.00000000 200.00000000 200.00000000 200.00000000 200.00000000 200.00000000 200.00000000 200.00000000 200.00000000 200.00000000 200.00000000 200.00000000 200.00000000 200.00000000 200.00000000 200.00000000 200.00000000 200.00000000 200.00000000 200.00000000 200.00000000 200.00000000 200.00000000 200.00000000 200.00000000 200.00000000 200.00000000 200.00000000 200.00000000 200.00000000 200.00000000 200.00000000 200.00000000 200.00000000 200.00000000 200.00000000 200.00000000 200.00000000 200.00000000 200.00000000 200.00000000 200.00000000 200.00000000 200.00000000 200.00000000 200.00000000 200.00000000 200.00000000 200.00000000 200.00000000 200.00000000 200.00000000 200.00000000 200.00000000 200.00000000 200.00000000 200.00000000 200.00000000 200.00000000 200.00000000 200.00000000 200.00000000 200.00000000 200.00000000 200.00000000 200.00000000 200.00000000 200.00000000 200.00000000 200.00000000 200.00000000 200.00000000 200.00000000 200.00000000 200.00000000 200.00000000 200.00000000 200.00000000 200.00000000 200.00000000 200.00000000 200.00000000 200.00000000 200.00000000 200.00000000 200.00000000 200.00000000 200.00000000 200.00000000 200.00000000 200.00000000 200.00000000 200.00000000 200.00000000 200.00000000 200.00000000 200.00000000 200.00000000 200.00000000 200.00000000 200.00000000 200.00000000 200.00000000 200.00000000 200.00000000 200.00000000 200.00000000 200.00000000 200.00000000 200.00000000 200.00000000 200.00000000 200.00000000 200.00000000 200.00000000 200.00000000 200.00000000 200.00000000 200.00000000 200.00000000 200.00000000 200.00000000 200.00000000 200.00000000 200.00000000 200.00000000 200.00000000 200.00000000 200.00000000 200.00000000 200.00000000 200.00000000 200.00000000 200.00000000 200.00000000 200.00000000 200.00000000 200.00000000 200.00000000 200.00000000 200.00000000 200.00000000 200.00000000 200.00000000 200.00000000 200.00000000 200.00000000 200.00000000 200.00000000 200.00000000 200.00000000 200.00000000 200.00000000 200.00000000 200.00000000 200.00000000 200.00000000 200.00000000 200.00000000 200.00000000 200.00000000 200.00000000 200.00000000 200.00000000 200.00000000 200.00000000 200.00000000 200.00000000 200.00000000 200.00000000 200.00000000 200.00000000 200.00000000 200.00000000 200.00000000 200.00000000 200.00000000 200.00000000 200.00000000 200.00000000 200.00000000 200.00000000 200.00000000 200.00000000 200.00000000 200.00000000 200.00000000 200.00000000 221.30413183 232.75511130 236.94706741 236.94706741 232.75511130 221.30413183 200.00000000 200.00000000 200.00000000 200.00000000 200.00000000 200.00000000 200.00000000 200.00000000 200.00000000 200.00000000 200.00000000 200.00000000 200.00000000 200.00000000 200.00000000 200.00000000 200.00000000 200.00000000 200.00000000 200.00000000 200.00000000 200.00000000 200.00000000 200.00000000 200.00000000 200.00000000 200.00000000 200.00000000 200.00000000 221.33661914 237.74945393 248.16906131 255.51240325 262.26297700 272.75700739 281.17630502 285.23996179 285.23996179 281.17630502 272.75700739 262.26297700 255.51240325 248.16906131 237.74945393 221.33661914 200.00000000 200.00000000 200.00000000 200.00000000 200.00000000 200.00000000 200.00000000 200.00000000 200.00000000 200.00000000 200.00000000 200.00000000 200.00000000 200.00000000 200.00000000 200.00000000 200.00000000 200.00000000 200.00000000 200.00000000 200.00000000 200.00000000 230.54276708 248.70843470 267.79938017 285.86527278 300.37569894 311.78143283 321.28590736 330.02471875 336.73708063 340.22578192 340.22578192 336.73708063 330.02471875 321.28590736 311.78143283 300.37569894 285.86527278 267.79938017 248.70843470 230.54276708 200.00000000 200.00000000 200.00000000 200.00000000 200.00000000 200.00000000 200.00000000 200.00000000 200.00000000 200.00000000 200.00000000 200.00000000 200.00000000 200.00000000 200.00000000 200.00000000 200.00000000 200.00000000 227.17230475 248.16213196 274.21119800 297.31763549 318.67068973 338.09457456 354.58162169 368.04623499 378.91784679 387.56631871 393.70170644 396.86700442 396.86700442 393.70170644 387.56631871 378.91784679 368.04623499 354.58162169 338.09457456 318.67068973 297.31763549 274.21119800 248.16213196 227.17230475 200.00000000 200.00000000 200.00000000 200.00000000 200.00000000 200.00000000 200.00000000 200.00000000 200.00000000 200.00000000 200.00000000 200.00000000 200.00000000 200.00000000 200.00000000 233.50549287 264.04551613 292.39219081 320.45254884 346.34279841 369.72143733 390.37391505 407.93196287 422.33692891 433.78170901 442.45772305 448.34951748 451.33300402 451.33300402 448.34951748 442.45772305 433.78170901 422.33692891 407.93196287 390.37391505 369.72143733 346.34279841 320.45254884 292.39219081 264.04551613 233.50549287 200.00000000 200.00000000 200.00000000 200.00000000 200.00000000 200.00000000 200.00000000 200.00000000 200.00000000 200.00000000 200.00000000 200.00000000 215.34708608 238.69500429 270.80059740 303.81217048 335.78660268 366.13255969 393.88354471 418.54971017 439.91206240 457.86230494 472.46355278 483.90650540 492.38819606 498.01894563 500.83144405 500.83144405 498.01894563 492.38819606 483.90650540 472.46355278 457.86230494 439.91206240 418.54971017 393.88354471 366.13255969 335.78660268 303.81217048 270.80059740 238.69500429 215.34708608 200.00000000 200.00000000 200.00000000 200.00000000 200.00000000 200.00000000 200.00000000 200.00000000 200.00000000 200.00000000 236.87920206 270.98710690 306.71240625 342.51798185 376.95429215 409.00332341 437.86442156 463.10016760 484.57244576 502.33747117 516.59201126 527.60655686 535.64444749 540.90404979 543.50604822 543.50604822 540.90404979 535.64444749 527.60655686 516.59201126 502.33747117 484.57244576 463.10016760 437.86442156 409.00332341 376.95429215 342.51798185 306.71240625 270.98710690 236.87920206 200.00000000 200.00000000 200.00000000 200.00000000 200.00000000 200.00000000 200.00000000 200.00000000 200.00000000 228.24952154 263.47199310 301.05899027 339.71635082 377.85471714 414.03300174 447.15621303 476.49871005 501.72166029 522.80798719 539.96001533 553.50639987 563.81845831 571.23947752 576.03886163 578.39485468 578.39485468 576.03886163 571.23947752 563.81845831 553.50639987 539.96001533 522.80798719 501.72166029 476.49871005 447.15621303 414.03300174 377.85471714 339.71635082 301.05899027 263.47199310 228.24952154 200.00000000 200.00000000 200.00000000 200.00000000 200.00000000 200.00000000 200.00000000 219.50659908 250.06107916 287.11019083 327.22797391 368.16823652 408.06893164 445.40975823 479.08858419 508.45322801 533.27729028 553.67475563 569.98381862 582.65409244 592.15283766 598.89667155 603.21114807 605.31429124 605.31429124 603.21114807 598.89667155 592.15283766 582.65409244 569.98381862 553.67475563 533.27729028 508.45322801 479.08858419 445.40975823 408.06893164 368.16823652 327.22797391 287.11019083 250.06107916 219.50659908 200.00000000 200.00000000 200.00000000 200.00000000 200.00000000 200.00000000 230.36642159 265.76577246 305.63871062 347.97461040 390.66738428 431.81187905 469.86255573 503.74140259 532.87170076 557.13408076 576.76182903 592.20920298 604.02597732 612.75781592 618.87912265 622.75638701 624.63430043 624.63430043 622.75638701 618.87912265 612.75781592 604.02597732 592.20920298 576.76182903 557.13408076 532.87170076 503.74140259 469.86255573 431.81187905 390.66738428 347.97461040 305.63871062 265.76577246 230.36642159 200.00000000 200.00000000 200.00000000 200.00000000 200.00000000 200.00000000 237.26407504 276.24248561 318.35542568 362.31507601 406.20023787 448.12958673 486.56393108 520.45741077 549.29667150 573.04612856 592.02925264 606.78500394 617.93431583 626.07733804 631.72737289 635.27712109 636.98742275 636.98742275 635.27712109 631.72737289 626.07733804 617.93431583 606.78500394 592.02925264 573.04612856 549.29667150 520.45741077 486.56393108 448.12958673 406.20023787 362.31507601 318.35542568 276.24248561 237.26407504 200.00000000 200.00000000 200.00000000 200.00000000 200.00000000 210.93234153 242.81909119 281.93214510 324.90498668 369.64976488 414.12495606 456.42916025 495.02517881 528.88694353 557.53700824 580.98571558 599.60496296 613.97831870 624.76354281 632.58850842 637.98587735 641.36099835 642.98223801 642.98223801 641.36099835 637.98587735 632.58850842 624.76354281 613.97831870 599.60496296 580.98571558 557.53700824 528.88694353 495.02517881 456.42916025 414.12495606 369.64976488 324.90498668 281.93214510 242.81909119 210.93234153 200.00000000 200.00000000 200.00000000 200.00000000 210.93234153 242.81909119 281.93214510 324.90498668 369.64976488 414.12495606 456.42916025 495.02517881 528.88694353 557.53700824 580.98571558 599.60496296 613.97831870 624.76354281 632.58850842 637.98587735 641.36099835 642.98223801 642.98223801 641.36099835 637.98587735 632.58850842 624.76354281 613.97831870 599.60496296 580.98571558 557.53700824 528.88694353 495.02517881 456.42916025 414.12495606 369.64976488 324.90498668 281.93214510 242.81909119 210.93234153 200.00000000 200.00000000 200.00000000 200.00000000 200.00000000 237.26407504 276.24248561 318.35542568 362.31507601 406.20023787 448.12958673 486.56393108 520.45741077 549.29667150 573.04612856 592.02925264 606.78500394 617.93431583 626.07733804 631.72737289 635.27712109 636.98742275 636.98742275 635.27712109 631.72737289 626.07733804 617.93431583 606.78500394 592.02925264 573.04612856 549.29667150 520.45741077 486.56393108 448.12958673 406.20023787 362.31507601 318.35542568 276.24248561 237.26407504 200.00000000 200.00000000 200.00000000 200.00000000 200.00000000 200.00000000 230.36642159 265.76577246 305.63871062 347.97461040 390.66738428 431.81187905 469.86255573 503.74140259 532.87170076 557.13408076 576.76182903 592.20920298 604.02597732 612.75781592 618.87912265 622.75638701 624.63430043 624.63430043 622.75638701 618.87912265 612.75781592 604.02597732 592.20920298 576.76182903 557.13408076 532.87170076 503.74140259 469.86255573 431.81187905 390.66738428 347.97461040 305.63871062 265.76577246 230.36642159 200.00000000 200.00000000 200.00000000 200.00000000 200.00000000 200.00000000 219.50659908 250.06107916 287.11019083 327.22797391 368.16823652 408.06893164 445.40975823 479.08858419 508.45322801 533.27729028 553.67475563 569.98381862 582.65409244 592.15283766 598.89667155 603.21114807 605.31429124 605.31429124 603.21114807 598.89667155 592.15283766 582.65409244 569.98381862 553.67475563 533.27729028 508.45322801 479.08858419 445.40975823 408.06893164 368.16823652 327.22797391 287.11019083 250.06107916 219.50659908 200.00000000 200.00000000 200.00000000 200.00000000 200.00000000 200.00000000 200.00000000 228.24952154 263.47199310 301.05899027 339.71635082 377.85471714 414.03300174 447.15621303 476.49871005 501.72166029 522.80798719 539.96001533 553.50639987 563.81845831 571.23947752 576.03886163 578.39485468 578.39485468 576.03886163 571.23947752 563.81845831 553.50639987 539.96001533 522.80798719 501.72166029 476.49871005 447.15621303 414.03300174 377.85471714 339.71635082 301.05899027 263.47199310 228.24952154 200.00000000 200.00000000 200.00000000 200.00000000 200.00000000 200.00000000 200.00000000 200.00000000 200.00000000 236.87920206 270.98710690 306.71240625 342.51798185 376.95429215 409.00332341 437.86442156 463.10016760 484.57244576 502.33747117 516.59201126 527.60655686 535.64444749 540.90404979 543.50604822 543.50604822 540.90404979 535.64444749 527.60655686 516.59201126 502.33747117 484.57244576 463.10016760 437.86442156 409.00332341 376.95429215 342.51798185 306.71240625 270.98710690 236.87920206 200.00000000 200.00000000 200.00000000 200.00000000 200.00000000 200.00000000 200.00000000 200.00000000 200.00000000 200.00000000 215.34708608 238.69500429 270.80059740 303.81217048 335.78660268 366.13255969 393.88354471 418.54971017 439.91206240 457.86230494 472.46355278 483.90650540 492.38819606 498.01894563 500.83144405 500.83144405 498.01894563 492.38819606 483.90650540 472.46355278 457.86230494 439.91206240 418.54971017 393.88354471 366.13255969 335.78660268 303.81217048 270.80059740 238.69500429 215.34708608 200.00000000 200.00000000 200.00000000 200.00000000 200.00000000 200.00000000 200.00000000 200.00000000 200.00000000 200.00000000 200.00000000 200.00000000 233.50549287 264.04551613 292.39219081 320.45254884 346.34279841 369.72143733 390.37391505 407.93196287 422.33692891 433.78170901 442.45772305 448.34951748 451.33300402 451.33300402 448.34951748 442.45772305 433.78170901 422.33692891 407.93196287 390.37391505 369.72143733 346.34279841 320.45254884 292.39219081 264.04551613 233.50549287 200.00000000 200.00000000 200.00000000 200.00000000 200.00000000 200.00000000 200.00000000 200.00000000 200.00000000 200.00000000 200.00000000 200.00000000 200.00000000 200.00000000 200.00000000 227.17230475 248.16213196 274.21119800 297.31763549 318.67068973 338.09457456 354.58162169 368.04623499 378.91784679 387.56631871 393.70170644 396.86700442 396.86700442 393.70170644 387.56631871 378.91784679 368.04623499 354.58162169 338.09457456 318.67068973 297.31763549 274.21119800 248.16213196 227.17230475 200.00000000 200.00000000 200.00000000 200.00000000 200.00000000 200.00000000 200.00000000 200.00000000 200.00000000 200.00000000 200.00000000 200.00000000 200.00000000 200.00000000 200.00000000 200.00000000 200.00000000 200.00000000 230.54276708 248.70843470 267.79938017 285.86527278 300.37569894 311.78143283 321.28590736 330.02471875 336.73708063 340.22578192 340.22578192 336.73708063 330.02471875 321.28590736 311.78143283 300.37569894 285.86527278 267.79938017 248.70843470 230.54276708 200.00000000 200.00000000 200.00000000 200.00000000 200.00000000 200.00000000 200.00000000 200.00000000 200.00000000 200.00000000 200.00000000 200.00000000 200.00000000 200.00000000 200.00000000 200.00000000 200.00000000 200.00000000 200.00000000 200.00000000 200.00000000 200.00000000 221.33661914 237.74945393 248.16906131 255.51240325 262.26297700 272.75700739 281.17630502 285.23996179 285.23996179 281.17630502 272.75700739 262.26297700 255.51240325 248.16906131 237.74945393 221.33661914 200.00000000 200.00000000 200.00000000 200.00000000 200.00000000 200.00000000 200.00000000 200.00000000 200.00000000 200.00000000 200.00000000 200.00000000 200.00000000 200.00000000 200.00000000 200.00000000 200.00000000 200.00000000 200.00000000 200.00000000 200.00000000 200.00000000 200.00000000 200.00000000 200.00000000 200.00000000 200.00000000 200.00000000 200.00000000 221.30413183 232.75511130 236.94706741 236.94706741 232.75511130 221.30413183 200.00000000 200.00000000 200.00000000 200.00000000 200.00000000 200.00000000 200.00000000 200.00000000 200.00000000 200.00000000 200.00000000 200.00000000 200.00000000 200.00000000 200.00000000 200.00000000 200.00000000 200.00000000 200.00000000 200.00000000 200.00000000 200.00000000 200.00000000 200.00000000 200.00000000 200.00000000 200.00000000 200.00000000 200.00000000 200.00000000 200.00000000 200.00000000 200.00000000 200.00000000 200.00000000 200.00000000 200.00000000 200.00000000 200.00000000 200.00000000 200.00000000 200.00000000 200.00000000 200.00000000 200.00000000 200.00000000 200.00000000 200.00000000 200.00000000 200.00000000 200.00000000 200.00000000 200.00000000 200.00000000 200.00000000 200.00000000 200.00000000 200.00000000 200.00000000 200.00000000 200.00000000 200.00000000 200.00000000 200.00000000 200.00000000 200.00000000 200.00000000 200.00000000 200.00000000 200.00000000 200.00000000 200.00000000 200.00000000 200.00000000 200.00000000 200.00000000 200.00000000 200.00000000 200.00000000 200.00000000 200.00000000 200.00000000 200.00000000 200.00000000 200.00000000 200.00000000 200.00000000 200.00000000 200.00000000 200.00000000 200.00000000 200.00000000 200.00000000 200.00000000 200.00000000 200.00000000 200.00000000 200.00000000 200.00000000 200.00000000 200.00000000 200.00000000 200.00000000 200.00000000 200.00000000 200.00000000 200.00000000 200.00000000 200.00000000 200.00000000 200.00000000 200.00000000 200.00000000 200.00000000 200.00000000 200.00000000 200.00000000 200.00000000 200.00000000 200.00000000 200.00000000 200.00000000 200.00000000 200.00000000 200.00000000 200.00000000 200.00000000 200.00000000 200.00000000 200.00000000 200.00000000 200.00000000 200.00000000 200.00000000 200.00000000 200.00000000 200.00000000 200.00000000 200.00000000 200.00000000 200.00000000 200.00000000 200.00000000 200.00000000 200.00000000 200.00000000 200.00000000 200.00000000 200.00000000 200.00000000 200.00000000 200.00000000 200.00000000 200.00000000 200.00000000 200.00000000 200.00000000 200.00000000 200.00000000 200.00000000 200.00000000 200.00000000 200.00000000 200.00000000 200.00000000 200.00000000 200.00000000 200.00000000 200.00000000 200.00000000 200.00000000 200.00000000 200.00000000 200.00000000 200.00000000 200.00000000 200.00000000 200.00000000 200.00000000 200.00000000 200.00000000 200.00000000 200.00000000 200.00000000 200.00000000 200.00000000 200.00000000 200.00000000 200.00000000 200.00000000 200.00000000 200.00000000 200.00000000 200.00000000 200.00000000 200.00000000 200.00000000 200.00000000 200.00000000 200.00000000 200.00000000 200.00000000 200.00000000 200.00000000 200.00000000 200.00000000 200.00000000 200.00000000 200.00000000 200.00000000 200.00000000 200.00000000 200.00000000 200.00000000 200.00000000 200.00000000 200.00000000 200.00000000 200.00000000 200.00000000 200.00000000 200.00000000 200.00000000 200.00000000 200.00000000 200.00000000 200.00000000 200.00000000 200.00000000 200.00000000 200.00000000 200.00000000 200.00000000 200.00000000 200.00000000 200.00000000 200.00000000 200.00000000 200.00000000 200.00000000 200.00000000 200.00000000 200.00000000 200.00000000 200.00000000 200.00000000 200.00000000 200.00000000 200.00000000 200.00000000 200.00000000 200.00000000 200.00000000 200.00000000 200.00000000 200.00000000 200.00000000 200.00000000 200.00000000 200.00000000 200.00000000 200.00000000 200.00000000 200.00000000 200.00000000 200.00000000 200.00000000 200.00000000 200.00000000 200.00000000 200.00000000 200.00000000 200.00000000 200.00000000 200.00000000 200.00000000 200.00000000 200.00000000 200.00000000 200.00000000 200.00000000 200.00000000 200.00000000 200.00000000 200.00000000 200.00000000 200.00000000 200.00000000 200.00000000 200.00000000 200.00000000 200.00000000 200.00000000 200.00000000 200.00000000 200.00000000 200.00000000 200.00000000 200.00000000 200.00000000 200.00000000 200.00000000 200.00000000 200.00000000 200.00000000 200.00000000 200.00000000 200.00000000 200.00000000 200.00000000 200.00000000 200.00000000 200.00000000 200.00000000 200.00000000 200.00000000 200.00000000 200.00000000 200.00000000 200.00000000 200.00000000 200.00000000 200.00000000 200.00000000 200.00000000 200.00000000 200.00000000 200.00000000 200.00000000 200.00000000 200.00000000 200.00000000 200.00000000 200.00000000 200.00000000 200.00000000 200.00000000 