# vtk DataFile Version 3.0
VTK - Matlab export
ASCII
DATASET STRUCTURED_POINTS
DIMENSIONS 40 40 1
SPACING 1 1 1
ORIGIN 0 0 0
POINT_DATA 1600
SCALARS lambda-2 float 1
LOOKUP_TABLE default
8.35311101 8.35311101 8.35311101 8.35311101 8.35311101 8.35311101 8.35311101 8.35311101 8.35311101 8.35311101 8.35311101 8.35311101 8.35311101 8.35311101 8.35311101 8.35311101 8.35311101 8.35311101 8.35311101 8.35311101 8.35311101 8.35311101 8.35311101 8.35311101 8.35311101 8.35311101 8.35311101 8.35311101 8.35311101 8.35311101 8.35311101 8.35311101 8.35311101 8.35311101 8.35311101 8.35311101 8.35311101 8.35311101 8.35311101 8.35311101 8.35311101 8.35311101 8.35311101 8.35311101 8.35311101 8.35311101 8.35311101 8.35311101 8.35311101 8.35311101 8.35311101 8.35311101 8.35311101 8.35311101 8.35311101 8.35311101 8.35311101 8.35311101 8.35311101 8.35311101 8.35311101 8.35311101 8.35311101 8.35311101 8.35311101 8.35311101 8.35311101 8.35311101 8.35311101 8.35311101 8.35311101 8.35311101 8.35311101 8.35311101 8.35311101 8.35311101 8.35311101 8.35311101 8.35311101 8.35311101 8.35311101 8.35311101 8.35311101 8.35311101 8.35311101 8.35311101 8.35311101 8.35311101 8.35311101 8.35311101 8.35311101 8.35311101 8.35311101 8.35311101 8.35311101 8.35311101 8.35311101 8.35311101 8.35311101 8.35311101 8.35311101 8.35311101 8.35311101 8.35311101 8.35311101 8.35311101 8.35311101 8.35311101 8.35311101 8.35311101 8.35311101 8.35311101 8.35311101 8.35311101 8.35311101 8.35311101 8.35311101 8.35311101 8.35311101 8.35311101 8.35311101 8.35311101 8.35311101 8.35311101 8.35311101 8.35311101 8.35311101 8.35311101 8.35311101 8.35311101 8.35311101 8.35311101 8.35311101 8.35311101 8.35311101 8.35311101 8.35311101 8.35311101 8.35311101 8.35311101 8.35311101 8.35311101 8.35311101 8.35311101 8.35311101 8.35311101 8.35311101 8.35311101 8.35311101 8.35311101 8.35311101 8.35311101 8.35311101 8.35311101 8.35311101 8.35311101 8.35311101 8.35311101 8.35311101 8.35311101 8.35311101 8.35311101 8.35311101 8.35311101 8.35311101 8.35311101 8.35311101 8.35311101 8.35311101 8.35311101 8.35311101 8.35311101 8.35311101 8.35311101 8.35311101 8.35311101 8.35311101 8.35311101 8.35311101 8.35311101 8.35311101 8.35311101 8.35311101 8.35311101 8.35311101 8.35311101 8.35311101 8.35311101 8.35311101 8.35311101 8.35311101 8.35311101 8.35311101 8.35311101 8.35311101 8.35311101 8.35311101 8.35311101 8.35311101 8.35311101 8.35311101 8.35311101 8.35311101 8.35311101 8.35311101 8.35311101 8.35311101 8.35311101 8.35311101 8.35311101 8.35311101 8.35311101 8.35311101 8.35311101 8.35311101 8.35311101 8.35311101 8.35311101 8.35311101 8.35311101 8.35311101 8.35311101 8.35311101 8.35311101 8.35311101 8.35311101 8.35311101 8.35311101 8.35311101 8.35311101 8.35311101 8.35311101 8.35311101 8.35311101 8.35311101 8.35311101 8.35311101 8.35311101 8.35311101 8.35311101 8.35311101 8.35311101 8.35311101 8.35311101 8.35311101 8.35311101 8.35311101 8.35311101 8.35311101 8.35311101 8.35311101 8.35311101 8.35311101 8.35311101 8.35311101 8.35311101 8.35311101 8.35311101 8.35311101 8.35311101 8.35311101 8.35311101 8.35311101 8.35311101 8.35311101 8.35311101 8.35311101 8.35311101 8.35311101 8.35311101 8.35311101 8.35311101 8.35311101 8.35311101 8.35311101 8.35311101 8.35311101 8.35311101 8.35311101 8.35311101 8.35311101 8.35311101 8.35311101 8.35311101 8.35311101 8.35311101 8.35311101 8.35311101 8.35311101 8.35311101 8.35311101 8.35311101 8.35311101 8.35311101 8.35311101 8.35311101 8.35311101 8.35311101 8.35311101 8.35311101 8.35311101 8.35311101 8.35311101 8.35311101 8.35311101 8.35311101 8.35311101 8.35311101 8.35311101 8.35311101 8.35311101 8.35311101 8.35311101 8.35311101 8.35311101 8.35311101 8.35311101 8.35311101 8.35311101 8.35311101 8.35311101 8.35311101 8.35311101 8.35311101 8.35311101 8.35311101 8.35311101 8.35311101 8.35311101 8.35311101 8.35311101 8.35311101 8.35311101 8.35311101 8.35311101 8.35311101 8.35311101 8.35073234 8.34944313 8.34896967 8.34896967 8.34944313 8.35073234 8.35311101 8.35311101 8.35311101 8.35311101 8.35311101 8.35311101 8.35311101 8.35311101 8.35311101 8.35311101 8.35311101 8.35311101 8.35311101 8.35311101 8.35311101 8.35311101 8.35311101 8.35311101 8.35311101 8.35311101 8.35311101 8.35311101 8.35311101 8.35311101 8.35311101 8.35311101 8.35311101 8.35311101 8.35311101 8.35059778 8.34872225 8.34759900 8.34686314 8.34619895 8.34508819 8.34418221 8.34374504 8.34374504 8.34418221 8.34508819 8.34619895 8.34686314 8.34759900 8.34872225 8.35059778 8.35311101 8.35311101 8.35311101 8.35311101 8.35311101 8.35311101 8.35311101 8.35311101 8.35311101 8.35311101 8.35311101 8.35311101 8.35311101 8.35311101 8.35311101 8.35311101 8.35311101 8.35311101 8.35311101 8.35311101 8.35311101 8.35311101 8.34936784 8.34726402 8.34515643 8.34325524 8.34183654 8.34080990 8.33999089 8.33921046 8.33859320 8.33827044 8.33827044 8.33859320 8.33921046 8.33999089 8.34080990 8.34183654 8.34325524 8.34515643 8.34726402 8.34936784 8.35311101 8.35311101 8.35311101 8.35311101 8.35311101 8.35311101 8.35311101 8.35311101 8.35311101 8.35311101 8.35311101 8.35311101 8.35311101 8.35311101 8.35311101 8.35311101 8.35311101 8.35311101 8.34960736 8.34705510 8.34403633 8.34156332 8.33946259 8.33770597 8.33635997 8.33537535 8.33464233 8.33406861 8.33365619 8.33344200 8.33344200 8.33365619 8.33406861 8.33464233 8.33537535 8.33635997 8.33770597 8.33946259 8.34156332 8.34403633 8.34705510 8.34960736 8.35311101 8.35311101 8.35311101 8.35311101 8.35311101 8.35311101 8.35311101 8.35311101 8.35311101 8.35311101 8.35311101 8.35311101 8.35311101 8.35311101 8.35311101 8.34865781 8.34482375 8.34155058 8.33859532 8.33616958 8.33425579 8.33279741 8.33175057 8.33103678 8.33055743 8.33023061 8.33001833 8.32991267 8.32991267 8.33001833 8.33023061 8.33055743 8.33103678 8.33175057 8.33279741 8.33425579 8.33616958 8.33859532 8.34155058 8.34482375 8.34865781 8.35311101 8.35311101 8.35311101 8.35311101 8.35311101 8.35311101 8.35311101 8.35311101 8.35311101 8.35311101 8.35311101 8.35311101 8.35093479 8.34776026 8.34362993 8.33972438 8.33635420 8.33358317 8.33146965 8.32997120 8.32899074 8.32841722 8.32813205 8.32802235 8.32799869 8.32800518 8.32801396 8.32801396 8.32800518 8.32799869 8.32802235 8.32813205 8.32841722 8.32899074 8.32997120 8.33146965 8.33358317 8.33635420 8.33972438 8.34362993 8.34776026 8.35093479 8.35311101 8.35311101 8.35311101 8.35311101 8.35311101 8.35311101 8.35311101 8.35311101 8.35311101 8.35311101 8.34782869 8.34322947 8.33882535 8.33491843 8.33173060 8.32934652 8.32775536 8.32685668 8.32649779 8.32651282 8.32674579 8.32706532 8.32737349 8.32760706 8.32773125 8.32773125 8.32760706 8.32737349 8.32706532 8.32674579 8.32651282 8.32649779 8.32685668 8.32775536 8.32934652 8.33173060 8.33491843 8.33882535 8.34322947 8.34782869 8.35311101 8.35311101 8.35311101 8.35311101 8.35311101 8.35311101 8.35311101 8.35311101 8.35311101 8.34890967 8.34391740 8.33899788 8.33450092 8.33074105 8.32791464 8.32607222 8.32513777 8.32494294 8.32527444 8.32591804 8.32668730 8.32743727 8.32806697 8.32851388 8.32874438 8.32874438 8.32851388 8.32806697 8.32743727 8.32668730 8.32591804 8.32527444 8.32494294 8.32513777 8.32607222 8.32791464 8.33074105 8.33450092 8.33899788 8.34391740 8.34890967 8.35311101 8.35311101 8.35311101 8.35311101 8.35311101 8.35311101 8.35311101 8.35011612 8.34558127 8.34041298 8.33534581 8.33088557 8.32738133 8.32501078 8.32377665 8.32353608 8.32405254 8.32505546 8.32629033 8.32754906 8.32868068 8.32958761 8.33021410 8.33053266 8.33053266 8.33021410 8.32958761 8.32868068 8.32754906 8.32629033 8.32505546 8.32405254 8.32353608 8.32377665 8.32501078 8.32738133 8.33088557 8.33534581 8.34041298 8.34558127 8.35011612 8.35311101 8.35311101 8.35311101 8.35311101 8.35311101 8.35311101 8.34841829 8.34315902 8.33766872 8.33249351 8.32812596 8.32491000 8.32299523 8.32233438 8.32272263 8.32386339 8.32543845 8.32716310 8.32881632 8.33024737 8.33136635 8.33212728 8.33251081 8.33251081 8.33212728 8.33136635 8.33024737 8.32881632 8.32716310 8.32543845 8.32386339 8.32272263 8.32233438 8.32299523 8.32491000 8.32812596 8.33249351 8.33766872 8.34315902 8.34841829 8.35311101 8.35311101 8.35311101 8.35311101 8.35311101 8.35311101 8.34732823 8.34153657 8.33579396 8.33055331 8.32628290 8.32331153 8.32176131 8.32154364 8.32240574 8.32400637 8.32599367 8.32806343 8.32998834 8.33162093 8.33287951 8.33372727 8.33415220 8.33415220 8.33372727 8.33287951 8.33162093 8.32998834 8.32806343 8.32599367 8.32400637 8.32240574 8.32154364 8.32176131 8.32331153 8.32628290 8.33055331 8.33579396 8.34153657 8.34732823 8.35311101 8.35311101 8.35311101 8.35311101 8.35311101 8.35138997 8.34644322 8.34065132 8.33483123 8.32957232 8.32536447 8.32253293 8.32118463 8.32120787 8.32232374 8.32416728 8.32636930 8.32861620 8.33067844 8.33241129 8.33373822 8.33462790 8.33507264 8.33507264 8.33462790 8.33373822 8.33241129 8.33067844 8.32861620 8.32636930 8.32416728 8.32232374 8.32120787 8.32118463 8.32253293 8.32536447 8.32957232 8.33483123 8.34065132 8.34644322 8.35138997 8.35311101 8.35311101 8.35311101 8.35311101 8.35138997 8.34644322 8.34065132 8.33483123 8.32957232 8.32536447 8.32253293 8.32118463 8.32120787 8.32232374 8.32416728 8.32636930 8.32861620 8.33067844 8.33241129 8.33373822 8.33462790 8.33507264 8.33507264 8.33462790 8.33373822 8.33241129 8.33067844 8.32861620 8.32636930 8.32416728 8.32232374 8.32120787 8.32118463 8.32253293 8.32536447 8.32957232 8.33483123 8.34065132 8.34644322 8.35138997 8.35311101 8.35311101 8.35311101 8.35311101 8.35311101 8.34732823 8.34153657 8.33579396 8.33055331 8.32628290 8.32331153 8.32176131 8.32154364 8.32240574 8.32400637 8.32599367 8.32806343 8.32998834 8.33162093 8.33287951 8.33372727 8.33415220 8.33415220 8.33372727 8.33287951 8.33162093 8.32998834 8.32806343 8.32599367 8.32400637 8.32240574 8.32154364 8.32176131 8.32331153 8.32628290 8.33055331 8.33579396 8.34153657 8.34732823 8.35311101 8.35311101 8.35311101 8.35311101 8.35311101 8.35311101 8.34841829 8.34315902 8.33766872 8.33249351 8.32812596 8.32491000 8.32299523 8.32233438 8.32272263 8.32386339 8.32543845 8.32716310 8.32881632 8.33024737 8.33136635 8.33212728 8.33251081 8.33251081 8.33212728 8.33136635 8.33024737 8.32881632 8.32716310 8.32543845 8.32386339 8.32272263 8.32233438 8.32299523 8.32491000 8.32812596 8.33249351 8.33766872 8.34315902 8.34841829 8.35311101 8.35311101 8.35311101 8.35311101 8.35311101 8.35311101 8.35011612 8.34558127 8.34041298 8.33534581 8.33088557 8.32738133 8.32501078 8.32377665 8.32353608 8.32405254 8.32505546 8.32629033 8.32754906 8.32868068 8.32958761 8.33021410 8.33053266 8.33053266 8.33021410 8.32958761 8.32868068 8.32754906 8.32629033 8.32505546 8.32405254 8.32353608 8.32377665 8.32501078 8.32738133 8.33088557 8.33534581 8.34041298 8.34558127 8.35011612 8.35311101 8.35311101 8.35311101 8.35311101 8.35311101 8.35311101 8.35311101 8.34890967 8.34391740 8.33899788 8.33450092 8.33074105 8.32791464 8.32607222 8.32513777 8.32494294 8.32527444 8.32591804 8.32668730 8.32743727 8.32806697 8.32851388 8.32874438 8.32874438 8.32851388 8.32806697 8.32743727 8.32668730 8.32591804 8.32527444 8.32494294 8.32513777 8.32607222 8.32791464 8.33074105 8.33450092 8.33899788 8.34391740 8.34890967 8.35311101 8.35311101 8.35311101 8.35311101 8.35311101 8.35311101 8.35311101 8.35311101 8.35311101 8.34782869 8.34322947 8.33882535 8.33491843 8.33173060 8.32934652 8.32775536 8.32685668 8.32649779 8.32651282 8.32674579 8.32706532 8.32737349 8.32760706 8.32773125 8.32773125 8.32760706 8.32737349 8.32706532 8.32674579 8.32651282 8.32649779 8.32685668 8.32775536 8.32934652 8.33173060 8.33491843 8.33882535 8.34322947 8.34782869 8.35311101 8.35311101 8.35311101 8.35311101 8.35311101 8.35311101 8.35311101 8.35311101 8.35311101 8.35311101 8.35093479 8.34776026 8.34362993 8.33972438 8.33635420 8.33358317 8.33146965 8.32997120 8.32899074 8.32841722 8.32813205 8.32802235 8.32799869 8.32800518 8.32801396 8.32801396 8.32800518 8.32799869 8.32802235 8.32813205 8.32841722 8.32899074 8.32997120 8.33146965 8.33358317 8.33635420 8.33972438 8.34362993 8.34776026 8.35093479 8.35311101 8.35311101 8.35311101 8.35311101 8.35311101 8.35311101 8.35311101 8.35311101 8.35311101 8.35311101 8.35311101 8.35311101 8.34865781 8.34482375 8.34155058 8.33859532 8.33616958 8.33425579 8.33279741 8.33175057 8.33103678 8.33055743 8.33023061 8.33001833 8.32991267 8.32991267 8.33001833 8.33023061 8.33055743 8.33103678 8.33175057 8.33279741 8.33425579 8.33616958 8.33859532 8.34155058 8.34482375 8.34865781 8.35311101 8.35311101 8.35311101 8.35311101 8.35311101 8.35311101 8.35311101 8.35311101 8.35311101 8.35311101 8.35311101 8.35311101 8.35311101 8.35311101 8.35311101 8.34960736 8.34705510 8.34403633 8.34156332 8.33946259 8.33770597 8.33635997 8.33537535 8.33464233 8.33406861 8.33365619 8.33344200 8.33344200 8.33365619 8.33406861 8.33464233 8.33537535 8.33635997 8.33770597 8.33946259 8.34156332 8.34403633 8.34705510 8.34960736 8.35311101 8.35311101 8.35311101 8.35311101 8.35311101 8.35311101 8.35311101 8.35311101 8.35311101 8.35311101 8.35311101 8.35311101 8.35311101 8.35311101 8.35311101 8.35311101 8.35311101 8.35311101 8.34936784 8.34726402 8.34515643 8.34325524 8.34183654 8.34080990 8.33999089 8.33921046 8.33859320 8.33827044 8.33827044 8.33859320 8.33921046 8.33999089 8.34080990 8.34183654 8.34325524 8.34515643 8.34726402 8.34936784 8.35311101 8.35311101 8.35311101 8.35311101 8.35311101 8.35311101 8.35311101 8.35311101 8.35311101 8.35311101 8.35311101 8.35311101 8.35311101 8.35311101 8.35311101 8.35311101 8.35311101 8.35311101 8.35311101 8.35311101 8.35311101 8.35311101 8.35059778 8.34872225 8.34759900 8.34686314 8.34619895 8.34508819 8.34418221 8.34374504 8.34374504 8.34418221 8.34508819 8.34619895 8.34686314 8.34759900 8.34872225 8.35059778 8.35311101 8.35311101 8.35311101 8.35311101 8.35311101 8.35311101 8.35311101 8.35311101 8.35311101 8.35311101 8.35311101 8.35311101 8.35311101 8.35311101 8.35311101 8.35311101 8.35311101 8.35311101 8.35311101 8.35311101 8.35311101 8.35311101 8.35311101 8.35311101 8.35311101 8.35311101 8.35311101 8.35311101 8.35311101 8.35073234 8.34944313 8.34896967 8.34896967 8.34944313 8.35073234 8.35311101 8.35311101 8.35311101 8.35311101 8.35311101 8.35311101 8.35311101 8.35311101 8.35311101 8.35311101 8.35311101 8.35311101 8.35311101 8.35311101 8.35311101 8.35311101 8.35311101 8.35311101 8.35311101 8.35311101 8.35311101 8.35311101 8.35311101 8.35311101 8.35311101 8.35311101 8.35311101 8.35311101 8.35311101 8.35311101 8.35311101 8.35311101 8.35311101 8.35311101 8.35311101 8.35311101 8.35311101 8.35311101 8.35311101 8.35311101 8.35311101 8.35311101 8.35311101 8.35311101 8.35311101 8.35311101 8.35311101 8.35311101 8.35311101 8.35311101 8.35311101 8.35311101 8.35311101 8.35311101 8.35311101 8.35311101 8.35311101 8.35311101 8.35311101 8.35311101 8.35311101 8.35311101 8.35311101 8.35311101 8.35311101 8.35311101 8.35311101 8.35311101 8.35311101 8.35311101 8.35311101 8.35311101 8.35311101 8.35311101 8.35311101 8.35311101 8.35311101 8.35311101 8.35311101 8.35311101 8.35311101 8.35311101 8.35311101 8.35311101 8.35311101 8.35311101 8.35311101 8.35311101 8.35311101 8.35311101 8.35311101 8.35311101 8.35311101 8.35311101 8.35311101 8.35311101 8.35311101 8.35311101 8.35311101 8.35311101 8.35311101 8.35311101 8.35311101 8.35311101 8.35311101 8.35311101 8.35311101 8.35311101 8.35311101 8.35311101 8.35311101 8.35311101 8.35311101 8.35311101 8.35311101 8.35311101 8.35311101 8.35311101 8.35311101 8.35311101 8.35311101 8.35311101 8.35311101 8.35311101 8.35311101 8.35311101 8.35311101 8.35311101 8.35311101 8.35311101 8.35311101 8.35311101 8.35311101 8.35311101 8.35311101 8.35311101 8.35311101 8.35311101 8.35311101 8.35311101 8.35311101 8.35311101 8.35311101 8.35311101 8.35311101 8.35311101 8.35311101 8.35311101 8.35311101 8.35311101 8.35311101 8.35311101 8.35311101 8.35311101 8.35311101 8.35311101 8.35311101 8.35311101 8.35311101 8.35311101 8.35311101 8.35311101 8.35311101 8.35311101 8.35311101 8.35311101 8.35311101 8.35311101 8.35311101 8.35311101 8.35311101 8.35311101 8.35311101 8.35311101 8.35311101 8.35311101 8.35311101 8.35311101 8.35311101 8.35311101 8.35311101 8.35311101 8.35311101 8.35311101 8.35311101 8.35311101 8.35311101 8.35311101 8.35311101 8.35311101 8.35311101 8.35311101 8.35311101 8.35311101 8.35311101 8.35311101 8.35311101 8.35311101 8.35311101 8.35311101 8.35311101 8.35311101 8.35311101 8.35311101 8.35311101 8.35311101 8.35311101 8.35311101 8.35311101 8.35311101 8.35311101 8.35311101 8.35311101 8.35311101 8.35311101 8.35311101 8.35311101 8.35311101 8.35311101 8.35311101 8.35311101 8.35311101 8.35311101 8.35311101 8.35311101 8.35311101 8.35311101 8.35311101 8.35311101 8.35311101 8.35311101 8.35311101 8.35311101 8.35311101 8.35311101 8.35311101 8.35311101 8.35311101 8.35311101 8.35311101 8.35311101 8.35311101 8.35311101 8.35311101 8.35311101 8.35311101 8.35311101 8.35311101 8.35311101 8.35311101 8.35311101 8.35311101 8.35311101 8.35311101 8.35311101 8.35311101 8.35311101 8.35311101 8.35311101 8.35311101 8.35311101 8.35311101 8.35311101 8.35311101 8.35311101 8.35311101 8.35311101 8.35311101 8.35311101 8.35311101 8.35311101 8.35311101 8.35311101 8.35311101 8.35311101 8.35311101 8.35311101 8.35311101 8.35311101 8.35311101 8.35311101 8.35311101 8.35311101 8.35311101 8.35311101 8.35311101 8.35311101 8.35311101 8.35311101 8.35311101 8.35311101 8.35311101 8.35311101 8.35311101 8.35311101 8.35311101 8.35311101 8.35311101 8.35311101 8.35311101 8.35311101 8.35311101 8.35311101 8.35311101 8.35311101 8.35311101 8.35311101 8.35311101 8.35311101 8.35311101 8.35311101 8.35311101 8.35311101 8.35311101 8.35311101 8.35311101 8.35311101 8.35311101 8.35311101 8.35311101 8.35311101 8.35311101 8.35311101 8.35311101 8.35311101 8.35311101 8.35311101 8.35311101 8.35311101 8.35311101 8.35311101 8.35311101 8.35311101 8.35311101 8.35311101 8.35311101 8.35311101 