# vtk DataFile Version 3.0
VTK - Matlab export
ASCII
DATASET STRUCTURED_POINTS
DIMENSIONS 40 40 1
SPACING 1 1 1
ORIGIN 0 0 0
POINT_DATA 1600
SCALARS Temperature float 1
LOOKUP_TABLE default
200.00000000 200.00000000 200.00000000 200.00000000 200.00000000 200.00000000 200.00000000 200.00000000 200.00000000 200.00000000 200.00000000 200.00000000 200.00000000 200.00000000 200.00000000 200.00000000 200.00000000 200.00000000 200.00000000 200.00000000 200.00000000 200.00000000 200.00000000 200.00000000 200.00000000 200.00000000 200.00000000 200.00000000 200.00000000 200.00000000 200.00000000 200.00000000 200.00000000 200.00000000 200.00000000 200.00000000 200.00000000 200.00000000 200.00000000 200.00000000 200.00000000 200.00000000 200.00000000 200.00000000 200.00000000 200.00000000 200.00000000 200.00000000 200.00000000 200.00000000 200.00000000 200.00000000 200.00000000 200.00000000 200.00000000 200.00000000 200.00000000 200.00000000 200.00000000 200.00000000 200.00000000 200.00000000 200.00000000 200.00000000 200.00000000 200.00000000 200.00000000 200.00000000 200.00000000 200.00000000 200.00000000 200.00000000 200.00000000 200.00000000 200.00000000 200.00000000 200.00000000 200.00000000 200.00000000 200.00000000 200.00000000 200.00000000 200.00000000 200.00000000 200.00000000 200.00000000 200.00000000 200.00000000 200.00000000 200.00000000 200.00000000 200.00000000 200.00000000 200.00000000 200.00000000 200.00000000 200.00000000 200.00000000 200.00000000 200.00000000 200.00000000 200.00000000 200.00000000 200.00000000 200.00000000 200.00000000 200.00000000 200.00000000 200.00000000 200.00000000 200.00000000 200.00000000 200.00000000 200.00000000 200.00000000 200.00000000 200.00000000 200.00000000 200.00000000 200.00000000 200.00000000 200.00000000 200.00000000 200.00000000 200.00000000 200.00000000 200.00000000 200.00000000 200.00000000 200.00000000 200.00000000 200.00000000 200.00000000 200.00000000 200.00000000 200.00000000 200.00000000 200.00000000 200.00000000 200.00000000 200.00000000 200.00000000 200.00000000 200.00000000 200.00000000 200.00000000 200.00000000 200.00000000 200.00000000 200.00000000 200.00000000 200.00000000 200.00000000 200.00000000 200.00000000 200.00000000 200.00000000 200.00000000 200.00000000 200.00000000 200.00000000 200.00000000 200.00000000 200.00000000 200.00000000 200.00000000 200.00000000 200.00000000 200.00000000 200.00000000 200.00000000 200.00000000 200.00000000 200.00000000 200.00000000 200.00000000 200.00000000 200.00000000 200.00000000 200.00000000 200.00000000 200.00000000 200.00000000 200.00000000 200.00000000 200.00000000 200.00000000 200.00000000 200.00000000 200.00000000 200.00000000 200.00000000 200.00000000 200.00000000 200.00000000 200.00000000 200.00000000 200.00000000 200.00000000 200.00000000 200.00000000 200.00000000 200.00000000 200.00000000 200.00000000 200.00000000 200.00000000 200.00000000 200.00000000 200.00000000 200.00000000 200.00000000 200.00000000 200.00000000 200.00000000 200.00000000 200.00000000 200.00000000 200.00000000 200.00000000 200.00000000 200.00000000 200.00000000 200.00000000 200.00000000 200.00000000 200.00000000 200.00000000 200.00000000 200.00000000 200.00000000 200.00000000 200.00000000 200.00000000 200.00000000 200.00000000 200.00000000 200.00000000 200.00000000 200.00000000 200.00000000 200.00000000 200.00000000 200.00000000 200.00000000 200.00000000 200.00000000 200.00000000 200.00000000 200.00000000 200.00000000 200.00000000 200.00000000 200.00000000 200.00000000 200.00000000 200.00000000 200.00000000 200.00000000 200.00000000 200.00000000 200.00000000 200.00000000 200.00000000 200.00000000 200.00000000 200.00000000 200.00000000 200.00000000 200.00000000 200.00000000 200.00000000 200.00000000 200.00000000 200.00000000 200.00000000 200.00000000 200.00000000 200.00000000 200.00000000 200.00000000 200.00000000 200.00000000 200.00000000 200.00000000 200.00000000 200.00000000 200.00000000 200.00000000 200.00000000 200.00000000 200.00000000 200.00000000 200.00000000 200.00000000 200.00000000 200.00000000 200.00000000 200.00000000 200.00000000 200.00000000 200.00000000 200.00000000 200.00000000 200.00000000 200.00000000 200.00000000 200.00000000 200.00000000 200.00000000 200.00000000 200.00000000 200.00000000 200.00000000 200.00000000 200.00000000 200.00000000 200.00000000 200.00000000 200.00000000 200.00000000 200.00000000 200.00000000 200.00000000 200.00000000 200.00000000 200.00000000 200.00000000 200.00000000 200.00000000 200.00000000 200.00000000 200.00000000 200.00000000 200.00000000 200.00000000 200.00000000 218.44962100 228.35879480 231.98598154 231.98598154 228.35879480 218.44962100 200.00000000 200.00000000 200.00000000 200.00000000 200.00000000 200.00000000 200.00000000 200.00000000 200.00000000 200.00000000 200.00000000 200.00000000 200.00000000 200.00000000 200.00000000 200.00000000 200.00000000 200.00000000 200.00000000 200.00000000 200.00000000 200.00000000 200.00000000 200.00000000 200.00000000 200.00000000 200.00000000 200.00000000 200.00000000 218.32104330 232.47966746 241.54114342 247.98724425 253.92770079 263.08142304 270.41185534 273.95090606 273.95090606 270.41185534 263.08142304 253.92770079 247.98724425 241.54114342 232.47966746 218.32104330 200.00000000 200.00000000 200.00000000 200.00000000 200.00000000 200.00000000 200.00000000 200.00000000 200.00000000 200.00000000 200.00000000 200.00000000 200.00000000 200.00000000 200.00000000 200.00000000 200.00000000 200.00000000 200.00000000 200.00000000 200.00000000 200.00000000 226.05411356 241.68059004 258.21523773 273.96295895 286.72657670 296.85373339 305.33367706 313.10478383 319.05712606 322.14945298 322.14945298 319.05712606 313.10478383 305.33367706 296.85373339 286.72657670 273.96295895 258.21523773 241.68059004 226.05411356 200.00000000 200.00000000 200.00000000 200.00000000 200.00000000 200.00000000 200.00000000 200.00000000 200.00000000 200.00000000 200.00000000 200.00000000 200.00000000 200.00000000 200.00000000 200.00000000 200.00000000 200.00000000 222.98439157 240.89708437 263.28323352 283.35227691 302.09293503 319.30545826 334.07089729 346.25359451 356.15962333 364.05391882 369.65108201 372.53803748 372.53803748 369.65108201 364.05391882 356.15962333 346.25359451 334.07089729 319.30545826 302.09293503 283.35227691 263.28323352 240.89708437 222.98439157 200.00000000 200.00000000 200.00000000 200.00000000 200.00000000 200.00000000 200.00000000 200.00000000 200.00000000 200.00000000 200.00000000 200.00000000 200.00000000 200.00000000 200.00000000 228.19317365 254.11326324 278.45572234 302.84166070 325.65157288 346.53989895 365.24257556 381.35432568 394.73444502 405.46583724 413.64602647 419.21494307 422.03807488 422.03807488 419.21494307 413.64602647 405.46583724 394.73444502 381.35432568 365.24257556 346.53989895 325.65157288 302.84166070 278.45572234 254.11326324 228.19317365 200.00000000 200.00000000 200.00000000 200.00000000 200.00000000 200.00000000 200.00000000 200.00000000 200.00000000 200.00000000 200.00000000 200.00000000 212.77626232 232.34165788 259.47020282 287.69266520 315.43368889 342.19294629 367.09936311 389.64232675 409.51427950 426.49467468 440.51721545 451.64275314 459.96127036 465.51314606 468.29402049 468.29402049 465.51314606 459.96127036 451.64275314 440.51721545 426.49467468 409.51427950 389.64232675 367.09936311 342.19294629 315.43368889 287.69266520 259.47020282 232.34165788 212.77626232 200.00000000 200.00000000 200.00000000 200.00000000 200.00000000 200.00000000 200.00000000 200.00000000 200.00000000 200.00000000 230.64017175 259.23867851 289.57818220 320.46857460 350.73546236 379.49364437 405.97337679 429.66207285 450.27561891 467.69497980 481.93975466 493.12201573 501.38035747 506.82777290 509.53492679 509.53492679 506.82777290 501.38035747 493.12201573 481.93975466 467.69497980 450.27561891 429.66207285 405.97337679 379.49364437 350.73546236 320.46857460 289.57818220 259.23867851 230.64017175 200.00000000 200.00000000 200.00000000 200.00000000 200.00000000 200.00000000 200.00000000 200.00000000 200.00000000 223.32021910 252.61503428 284.24282466 317.28941005 350.53387980 382.79594672 413.09352707 440.67444364 465.05870411 486.01795847 503.52058808 517.67468483 528.66681023 536.70137331 541.95449134 544.54968893 544.54968893 541.95449134 536.70137331 528.66681023 517.67468483 503.52058808 486.01795847 465.05870411 440.67444364 413.09352707 382.79594672 350.53387980 317.28941005 284.24282466 252.61503428 223.32021910 200.00000000 200.00000000 200.00000000 200.00000000 200.00000000 200.00000000 200.00000000 216.01511895 241.23517398 272.10423620 306.00165379 341.24545922 376.39297169 410.18090882 441.58542843 469.86843687 494.59452638 515.60232519 532.94372568 546.81190283 557.46965648 565.18678825 570.19399994 572.65539272 572.65539272 570.19399994 565.18678825 557.46965648 546.81190283 532.94372568 515.60232519 494.59452638 469.86843687 441.58542843 410.18090882 376.39297169 341.24545922 306.00165379 272.10423620 241.23517398 216.01511895 200.00000000 200.00000000 200.00000000 200.00000000 200.00000000 200.00000000 224.89873038 254.10100456 287.36834076 323.27069211 360.25415963 396.83855056 431.72038289 463.86126432 492.54263774 517.37502667 538.26111128 555.32657820 568.83821486 579.12489331 586.51181833 591.27331171 593.60397250 593.60397250 591.27331171 586.51181833 579.12489331 568.83821486 555.32657820 538.26111128 517.37502667 492.54263774 463.86126432 431.72038289 396.83855056 360.25415963 323.27069211 287.36834076 254.10100456 224.89873038 200.00000000 200.00000000 200.00000000 200.00000000 200.00000000 200.00000000 230.52794748 262.67242446 297.84407409 335.22435074 373.41956183 410.96551830 446.54739369 479.12592394 508.00200868 532.82377128 553.54376520 570.34303956 583.54256441 593.51935050 600.63827229 605.20396365 607.43154174 607.43154174 605.20396365 600.63827229 593.51935050 583.54256441 570.34303956 553.54376520 532.82377128 508.00200868 479.12592394 446.54739369 410.96551830 373.41956183 335.22435074 297.84407409 262.67242446 230.52794748 200.00000000 200.00000000 200.00000000 200.00000000 200.00000000 208.93527605 235.05483965 267.32213304 303.23930999 341.34476933 380.15161331 418.17708048 454.09857720 486.87798989 515.82800310 540.61783054 561.22725891 577.86701398 590.88676350 600.68879312 607.65857681 612.11624624 614.28723794 614.28723794 612.11624624 607.65857681 600.68879312 590.88676350 577.86701398 561.22725891 540.61783054 515.82800310 486.87798989 454.09857720 418.17708048 380.15161331 341.34476933 303.23930999 267.32213304 235.05483965 208.93527605 200.00000000 200.00000000 200.00000000 200.00000000 208.93527605 235.05483965 267.32213304 303.23930999 341.34476933 380.15161331 418.17708048 454.09857720 486.87798989 515.82800310 540.61783054 561.22725891 577.86701398 590.88676350 600.68879312 607.65857681 612.11624624 614.28723794 614.28723794 612.11624624 607.65857681 600.68879312 590.88676350 577.86701398 561.22725891 540.61783054 515.82800310 486.87798989 454.09857720 418.17708048 380.15161331 341.34476933 303.23930999 267.32213304 235.05483965 208.93527605 200.00000000 200.00000000 200.00000000 200.00000000 200.00000000 230.52794748 262.67242446 297.84407409 335.22435074 373.41956183 410.96551830 446.54739369 479.12592394 508.00200868 532.82377128 553.54376520 570.34303956 583.54256441 593.51935050 600.63827229 605.20396365 607.43154174 607.43154174 605.20396365 600.63827229 593.51935050 583.54256441 570.34303956 553.54376520 532.82377128 508.00200868 479.12592394 446.54739369 410.96551830 373.41956183 335.22435074 297.84407409 262.67242446 230.52794748 200.00000000 200.00000000 200.00000000 200.00000000 200.00000000 200.00000000 224.89873038 254.10100456 287.36834076 323.27069211 360.25415963 396.83855056 431.72038289 463.86126432 492.54263774 517.37502667 538.26111128 555.32657820 568.83821486 579.12489331 586.51181833 591.27331171 593.60397250 593.60397250 591.27331171 586.51181833 579.12489331 568.83821486 555.32657820 538.26111128 517.37502667 492.54263774 463.86126432 431.72038289 396.83855056 360.25415963 323.27069211 287.36834076 254.10100456 224.89873038 200.00000000 200.00000000 200.00000000 200.00000000 200.00000000 200.00000000 216.01511895 241.23517398 272.10423620 306.00165379 341.24545922 376.39297169 410.18090882 441.58542843 469.86843687 494.59452638 515.60232519 532.94372568 546.81190283 557.46965648 565.18678825 570.19399994 572.65539272 572.65539272 570.19399994 565.18678825 557.46965648 546.81190283 532.94372568 515.60232519 494.59452638 469.86843687 441.58542843 410.18090882 376.39297169 341.24545922 306.00165379 272.10423620 241.23517398 216.01511895 200.00000000 200.00000000 200.00000000 200.00000000 200.00000000 200.00000000 200.00000000 223.32021910 252.61503428 284.24282466 317.28941005 350.53387980 382.79594672 413.09352707 440.67444364 465.05870411 486.01795847 503.52058808 517.67468483 528.66681023 536.70137331 541.95449134 544.54968893 544.54968893 541.95449134 536.70137331 528.66681023 517.67468483 503.52058808 486.01795847 465.05870411 440.67444364 413.09352707 382.79594672 350.53387980 317.28941005 284.24282466 252.61503428 223.32021910 200.00000000 200.00000000 200.00000000 200.00000000 200.00000000 200.00000000 200.00000000 200.00000000 200.00000000 230.64017175 259.23867851 289.57818220 320.46857460 350.73546236 379.49364437 405.97337679 429.66207285 450.27561891 467.69497980 481.93975466 493.12201573 501.38035747 506.82777290 509.53492679 509.53492679 506.82777290 501.38035747 493.12201573 481.93975466 467.69497980 450.27561891 429.66207285 405.97337679 379.49364437 350.73546236 320.46857460 289.57818220 259.23867851 230.64017175 200.00000000 200.00000000 200.00000000 200.00000000 200.00000000 200.00000000 200.00000000 200.00000000 200.00000000 200.00000000 212.77626232 232.34165788 259.47020282 287.69266520 315.43368889 342.19294629 367.09936311 389.64232675 409.51427950 426.49467468 440.51721545 451.64275314 459.96127036 465.51314606 468.29402049 468.29402049 465.51314606 459.96127036 451.64275314 440.51721545 426.49467468 409.51427950 389.64232675 367.09936311 342.19294629 315.43368889 287.69266520 259.47020282 232.34165788 212.77626232 200.00000000 200.00000000 200.00000000 200.00000000 200.00000000 200.00000000 200.00000000 200.00000000 200.00000000 200.00000000 200.00000000 200.00000000 228.19317365 254.11326324 278.45572234 302.84166070 325.65157288 346.53989895 365.24257556 381.35432568 394.73444502 405.46583724 413.64602647 419.21494307 422.03807488 422.03807488 419.21494307 413.64602647 405.46583724 394.73444502 381.35432568 365.24257556 346.53989895 325.65157288 302.84166070 278.45572234 254.11326324 228.19317365 200.00000000 200.00000000 200.00000000 200.00000000 200.00000000 200.00000000 200.00000000 200.00000000 200.00000000 200.00000000 200.00000000 200.00000000 200.00000000 200.00000000 200.00000000 222.98439157 240.89708437 263.28323352 283.35227691 302.09293503 319.30545826 334.07089729 346.25359451 356.15962333 364.05391882 369.65108201 372.53803748 372.53803748 369.65108201 364.05391882 356.15962333 346.25359451 334.07089729 319.30545826 302.09293503 283.35227691 263.28323352 240.89708437 222.98439157 200.00000000 200.00000000 200.00000000 200.00000000 200.00000000 200.00000000 200.00000000 200.00000000 200.00000000 200.00000000 200.00000000 200.00000000 200.00000000 200.00000000 200.00000000 200.00000000 200.00000000 200.00000000 226.05411356 241.68059004 258.21523773 273.96295895 286.72657670 296.85373339 305.33367706 313.10478383 319.05712606 322.14945298 322.14945298 319.05712606 313.10478383 305.33367706 296.85373339 286.72657670 273.96295895 258.21523773 241.68059004 226.05411356 200.00000000 200.00000000 200.00000000 200.00000000 200.00000000 200.00000000 200.00000000 200.00000000 200.00000000 200.00000000 200.00000000 200.00000000 200.00000000 200.00000000 200.00000000 200.00000000 200.00000000 200.00000000 200.00000000 200.00000000 200.00000000 200.00000000 218.32104330 232.47966746 241.54114342 247.98724425 253.92770079 263.08142304 270.41185534 273.95090606 273.95090606 270.41185534 263.08142304 253.92770079 247.98724425 241.54114342 232.47966746 218.32104330 200.00000000 200.00000000 200.00000000 200.00000000 200.00000000 200.00000000 200.00000000 200.00000000 200.00000000 200.00000000 200.00000000 200.00000000 200.00000000 200.00000000 200.00000000 200.00000000 200.00000000 200.00000000 200.00000000 200.00000000 200.00000000 200.00000000 200.00000000 200.00000000 200.00000000 200.00000000 200.00000000 200.00000000 200.00000000 218.44962100 228.35879480 231.98598154 231.98598154 228.35879480 218.44962100 200.00000000 200.00000000 200.00000000 200.00000000 200.00000000 200.00000000 200.00000000 200.00000000 200.00000000 200.00000000 200.00000000 200.00000000 200.00000000 200.00000000 200.00000000 200.00000000 200.00000000 200.00000000 200.00000000 200.00000000 200.00000000 200.00000000 200.00000000 200.00000000 200.00000000 200.00000000 200.00000000 200.00000000 200.00000000 200.00000000 200.00000000 200.00000000 200.00000000 200.00000000 200.00000000 200.00000000 200.00000000 200.00000000 200.00000000 200.00000000 200.00000000 200.00000000 200.00000000 200.00000000 200.00000000 200.00000000 200.00000000 200.00000000 200.00000000 200.00000000 200.00000000 200.00000000 200.00000000 200.00000000 200.00000000 200.00000000 200.00000000 200.00000000 200.00000000 200.00000000 200.00000000 200.00000000 200.00000000 200.00000000 200.00000000 200.00000000 200.00000000 200.00000000 200.00000000 200.00000000 200.00000000 200.00000000 200.00000000 200.00000000 200.00000000 200.00000000 200.00000000 200.00000000 200.00000000 200.00000000 200.00000000 200.00000000 200.00000000 200.00000000 200.00000000 200.00000000 200.00000000 200.00000000 200.00000000 200.00000000 200.00000000 200.00000000 200.00000000 200.00000000 200.00000000 200.00000000 200.00000000 200.00000000 200.00000000 200.00000000 200.00000000 200.00000000 200.00000000 200.00000000 200.00000000 200.00000000 200.00000000 200.00000000 200.00000000 200.00000000 200.00000000 200.00000000 200.00000000 200.00000000 200.00000000 200.00000000 200.00000000 200.00000000 200.00000000 200.00000000 200.00000000 200.00000000 200.00000000 200.00000000 200.00000000 200.00000000 200.00000000 200.00000000 200.00000000 200.00000000 200.00000000 200.00000000 200.00000000 200.00000000 200.00000000 200.00000000 200.00000000 200.00000000 200.00000000 200.00000000 200.00000000 200.00000000 200.00000000 200.00000000 200.00000000 200.00000000 200.00000000 200.00000000 200.00000000 200.00000000 200.00000000 200.00000000 200.00000000 200.00000000 200.00000000 200.00000000 200.00000000 200.00000000 200.00000000 200.00000000 200.00000000 200.00000000 200.00000000 200.00000000 200.00000000 200.00000000 200.00000000 200.00000000 200.00000000 200.00000000 200.00000000 200.00000000 200.00000000 200.00000000 200.00000000 200.00000000 200.00000000 200.00000000 200.00000000 200.00000000 200.00000000 200.00000000 200.00000000 200.00000000 200.00000000 200.00000000 200.00000000 200.00000000 200.00000000 200.00000000 200.00000000 200.00000000 200.00000000 200.00000000 200.00000000 200.00000000 200.00000000 200.00000000 200.00000000 200.00000000 200.00000000 200.00000000 200.00000000 200.00000000 200.00000000 200.00000000 200.00000000 200.00000000 200.00000000 200.00000000 200.00000000 200.00000000 200.00000000 200.00000000 200.00000000 200.00000000 200.00000000 200.00000000 200.00000000 200.00000000 200.00000000 200.00000000 200.00000000 200.00000000 200.00000000 200.00000000 200.00000000 200.00000000 200.00000000 200.00000000 200.00000000 200.00000000 200.00000000 200.00000000 200.00000000 200.00000000 200.00000000 200.00000000 200.00000000 200.00000000 200.00000000 200.00000000 200.00000000 200.00000000 200.00000000 200.00000000 200.00000000 200.00000000 200.00000000 200.00000000 200.00000000 200.00000000 200.00000000 200.00000000 200.00000000 200.00000000 200.00000000 200.00000000 200.00000000 200.00000000 200.00000000 200.00000000 200.00000000 200.00000000 200.00000000 200.00000000 200.00000000 200.00000000 200.00000000 200.00000000 200.00000000 200.00000000 200.00000000 200.00000000 200.00000000 200.00000000 200.00000000 200.00000000 200.00000000 200.00000000 200.00000000 200.00000000 200.00000000 200.00000000 200.00000000 200.00000000 200.00000000 200.00000000 200.00000000 200.00000000 200.00000000 200.00000000 200.00000000 200.00000000 200.00000000 200.00000000 200.00000000 200.00000000 200.00000000 200.00000000 200.00000000 200.00000000 200.00000000 200.00000000 200.00000000 200.00000000 200.00000000 200.00000000 200.00000000 200.00000000 200.00000000 200.00000000 200.00000000 200.00000000 200.00000000 200.00000000 200.00000000 200.00000000 200.00000000 200.00000000 200.00000000 200.00000000 200.00000000 200.00000000 200.00000000 200.00000000 200.00000000 200.00000000 200.00000000 200.00000000 200.00000000 200.00000000 200.00000000 200.00000000 200.00000000 200.00000000 200.00000000 