# vtk DataFile Version 3.0
VTK - Matlab export
ASCII
DATASET STRUCTURED_POINTS
DIMENSIONS 40 40 1
SPACING 1 1 1
ORIGIN 0 0 0
POINT_DATA 1600
SCALARS Proofstrength float 1
LOOKUP_TABLE default
140.71398941 140.71398941 140.71398941 140.71398941 140.71398941 140.71398941 140.71398941 140.71398941 140.71398941 140.71398941 140.71398941 140.71398941 140.71398941 140.71398941 140.71398941 140.71398941 140.71398941 140.71398941 140.71398941 140.71398941 140.71398941 140.71398941 140.71398941 140.71398941 140.71398941 140.71398941 140.71398941 140.71398941 140.71398941 140.71398941 140.71398941 140.71398941 140.71398941 140.71398941 140.71398941 140.71398941 140.71398941 140.71398941 140.71398941 140.71398941 140.71398941 140.71398941 140.71398941 140.71398941 140.71398941 140.71398941 140.71398941 140.71398941 140.71398941 140.71398941 140.71398941 140.71398941 140.71398941 140.71398941 140.71398941 140.71398941 140.71398941 140.71398941 140.71398941 140.71398941 140.71398941 140.71398941 140.71398941 140.71398941 140.71398941 140.71398941 140.71398941 140.71398941 140.71398941 140.71398941 140.71398941 140.71398941 140.71398941 140.71398941 140.71398941 140.71398941 140.71398941 140.71398941 140.71398941 140.71398941 140.71398941 140.71398941 140.71398941 140.71398941 140.71398941 140.71398941 140.71398941 140.71398941 140.71398941 140.71398941 140.71398941 140.71398941 140.71398941 140.71398941 140.71398941 140.71398941 140.71398941 140.71398941 140.71398941 140.71398941 140.71398941 140.71398941 140.71398941 140.71398941 140.71398941 140.71398941 140.71398941 140.71398941 140.71398941 140.71398941 140.71398941 140.71398941 140.71398941 140.71398941 140.71398941 140.71398941 140.71398941 140.71398941 140.71398941 140.71398941 140.71398941 140.71398941 140.71398941 140.71398941 140.71398941 140.71398941 140.71398941 140.71398941 140.71398941 140.71398941 140.71398941 140.71398941 140.71398941 140.71398941 140.71398941 140.71398941 140.71398941 140.71398941 140.71398941 140.71398941 140.71398941 140.71398941 140.71398941 140.71398941 140.71398941 140.71398941 140.71398941 140.71398941 140.71398941 140.71398941 140.71398941 140.71398941 140.71398941 140.71398941 140.71398941 140.71398941 140.71398941 140.71398941 140.71398941 140.71398941 140.71398941 140.71398941 140.71398941 140.71398941 140.71398941 140.71398941 140.71398941 140.71398941 140.71398941 140.71398941 140.71398941 140.71398941 140.71398941 140.71398941 140.71398941 140.71398941 140.71398941 140.71398941 140.71398941 140.71398941 140.71398941 140.71398941 140.71398941 140.71398941 140.71398941 140.71398941 140.71398941 140.71398941 140.71398941 140.71398941 140.71398941 140.71398941 140.71398941 140.71398941 140.71398941 140.71398941 140.71398941 140.71398941 140.71398941 140.71398941 140.71398941 140.71398941 140.71398941 140.71398941 140.71398941 140.71398941 140.71398941 140.71398941 140.71398941 140.71398941 140.71398941 140.71398941 140.71398941 140.71398941 140.71398941 140.71398941 140.71398941 140.71398941 140.71398941 140.71398941 140.71398941 140.71398941 140.71398941 140.71398941 140.71398941 140.71398941 140.71398941 140.71398941 140.71398941 140.71398941 140.71398941 140.71398941 140.71398941 140.71398941 140.71398941 140.71398941 140.71398941 140.71398941 140.71398941 140.71398941 140.71398941 140.71398941 140.71398941 140.71398941 140.71398941 140.71398941 140.71398941 140.71398941 140.71398941 140.71398941 140.71398941 140.71398941 140.71398941 140.71398941 140.71398941 140.71398941 140.71398941 140.71398941 140.71398941 140.71398941 140.71398941 140.71398941 140.71398941 140.71398941 140.71398941 140.71398941 140.71398941 140.71398941 140.71398941 140.71398941 140.71398941 140.71398941 140.71398941 140.71398941 140.71398941 140.71398941 140.71398941 140.71398941 140.71398941 140.71398941 140.71398941 140.71398941 140.71398941 140.71398941 140.71398941 140.71398941 140.71398941 140.71398941 140.71398941 140.71398941 140.71398941 140.71398941 140.71398941 140.71398941 140.71398941 140.71398941 140.71398941 140.71398941 140.71398941 140.71398941 140.71398941 140.71398941 140.71398941 140.71398941 140.71398941 140.71398941 140.71398941 140.71398941 140.71398941 140.71398941 140.71398941 140.71398941 140.71398941 140.71398941 140.71398941 140.71398941 140.71398941 140.71398941 140.71398941 140.71398941 140.71398941 140.71398941 140.71398941 140.71398941 140.71398941 140.71398941 140.71398941 140.71398941 140.71398941 140.71398941 140.71398941 140.71398941 140.71398941 140.71398941 140.71398941 140.71398941 140.71398941 140.71970979 140.72289021 140.72408060 140.72408060 140.72289021 140.71970979 140.71398941 140.71398941 140.71398941 140.71398941 140.71398941 140.71398941 140.71398941 140.71398941 140.71398941 140.71398941 140.71398941 140.71398941 140.71398941 140.71398941 140.71398941 140.71398941 140.71398941 140.71398941 140.71398941 140.71398941 140.71398941 140.71398941 140.71398941 140.71398941 140.71398941 140.71398941 140.71398941 140.71398941 140.71398941 140.72002934 140.72452952 140.72714092 140.72876373 140.73022659 140.73285362 140.73505918 140.73613853 140.73613853 140.73505918 140.73285362 140.73022659 140.72876373 140.72714092 140.72452952 140.72002934 140.71398941 140.71398941 140.71398941 140.71398941 140.71398941 140.71398941 140.71398941 140.71398941 140.71398941 140.71398941 140.71398941 140.71398941 140.71398941 140.71398941 140.71398941 140.71398941 140.71398941 140.71398941 140.71398941 140.71398941 140.71398941 140.71398941 140.72294990 140.72788719 140.73274314 140.73701488 140.74002190 140.74203409 140.74358960 140.74517687 140.74650227 140.74721141 140.74721141 140.74650227 140.74517687 140.74358960 140.74203409 140.74002190 140.73701488 140.73274314 140.72788719 140.72294990 140.71398941 140.71398941 140.71398941 140.71398941 140.71398941 140.71398941 140.71398941 140.71398941 140.71398941 140.71398941 140.71398941 140.71398941 140.71398941 140.71398941 140.71398941 140.71398941 140.71398941 140.71398941 140.72237750 140.72832216 140.73522047 140.74056766 140.74482615 140.74813719 140.75040326 140.75182937 140.75277808 140.75354522 140.75414581 140.75447387 140.75447387 140.75414581 140.75354522 140.75277808 140.75182937 140.75040326 140.74813719 140.74482615 140.74056766 140.73522047 140.72832216 140.72237750 140.71398941 140.71398941 140.71398941 140.71398941 140.71398941 140.71398941 140.71398941 140.71398941 140.71398941 140.71398941 140.71398941 140.71398941 140.71398941 140.71398941 140.71398941 140.72462913 140.73349059 140.74057808 140.74650996 140.75084597 140.75376607 140.75555594 140.75644263 140.75671402 140.75668375 140.75659202 140.75653508 140.75651372 140.75651372 140.75653508 140.75659202 140.75668375 140.75671402 140.75644263 140.75555594 140.75376607 140.75084597 140.74650996 140.74057808 140.73349059 140.72462913 140.71398941 140.71398941 140.71398941 140.71398941 140.71398941 140.71398941 140.71398941 140.71398941 140.71398941 140.71398941 140.71398941 140.71398941 140.71936338 140.72693187 140.73633624 140.74452689 140.75074722 140.75501623 140.75743957 140.75837800 140.75827424 140.75752541 140.75647768 140.75541516 140.75453304 140.75392706 140.75362352 140.75362352 140.75392706 140.75453304 140.75541516 140.75647768 140.75752541 140.75827424 140.75837800 140.75743957 140.75501623 140.75074722 140.74452689 140.73633624 140.72693187 140.71936338 140.71398941 140.71398941 140.71398941 140.71398941 140.71398941 140.71398941 140.71398941 140.71398941 140.71398941 140.71398941 140.72700444 140.73763544 140.74678798 140.75367797 140.75798538 140.75991201 140.75992920 140.75864214 140.75663427 140.75437153 140.75218918 140.75030827 140.74885447 140.74788025 140.74739503 140.74739503 140.74788025 140.74885447 140.75030827 140.75218918 140.75437153 140.75663427 140.75864214 140.75992920 140.75991201 140.75798538 140.75367797 140.74678798 140.73763544 140.72700444 140.71398941 140.71398941 140.71398941 140.71398941 140.71398941 140.71398941 140.71398941 140.71398941 140.71398941 140.72462374 140.73658232 140.74716217 140.75523323 140.76017167 140.76200984 140.76131076 140.75888684 140.75555478 140.75197464 140.74859318 140.74566719 140.74331724 140.74157878 140.74044208 140.73988262 140.73988262 140.74044208 140.74157878 140.74331724 140.74566719 140.74859318 140.75197464 140.75555478 140.75888684 140.76131076 140.76200984 140.76017167 140.75523323 140.74716217 140.73658232 140.72462374 140.71398941 140.71398941 140.71398941 140.71398941 140.71398941 140.71398941 140.71398941 140.72179651 140.73312614 140.74494549 140.75480998 140.76130955 140.76399678 140.76327838 140.76010661 140.75558733 140.75067541 140.74603018 140.74201233 140.73875901 140.73627435 140.73450159 140.73336965 140.73281983 140.73281983 140.73336965 140.73450159 140.73627435 140.73875901 140.74201233 140.74603018 140.75067541 140.75558733 140.76010661 140.76327838 140.76399678 140.76130955 140.75480998 140.74494549 140.73312614 140.72179651 140.71398941 140.71398941 140.71398941 140.71398941 140.71398941 140.71398941 140.72624319 140.73922375 140.75121724 140.76026139 140.76514301 140.76571549 140.76276914 140.75760265 140.75153845 140.74559324 140.74036975 140.73611306 140.73283497 140.73043323 140.72877432 140.72773909 140.72724301 140.72724301 140.72773909 140.72877432 140.73043323 140.73283497 140.73611306 140.74036975 140.74559324 140.75153845 140.75760265 140.76276914 140.76571549 140.76514301 140.76026139 140.75121724 140.73922375 140.72624319 140.71398941 140.71398941 140.71398941 140.71398941 140.71398941 140.71398941 140.72908064 140.74321982 140.75530513 140.76363554 140.76721349 140.76617384 140.76161839 140.75509848 140.74806960 140.74155904 140.73609782 140.73182686 140.72865812 140.72641152 140.72490133 140.72397774 140.72354059 140.72354059 140.72397774 140.72490133 140.72641152 140.72865812 140.73182686 140.73609782 140.74155904 140.74806960 140.75509848 140.76161839 140.76617384 140.76721349 140.76363554 140.75530513 140.74321982 140.72908064 140.71398941 140.71398941 140.71398941 140.71398941 140.71398941 140.71855383 140.73141372 140.74538592 140.75733926 140.76522390 140.76807322 140.76616753 140.76077748 140.75358495 140.74610574 140.73936085 140.73383382 140.72960511 140.72653223 140.72439485 140.72298149 140.72212795 140.72172714 140.72172714 140.72212795 140.72298149 140.72439485 140.72653223 140.72960511 140.73383382 140.73936085 140.74610574 140.75358495 140.76077748 140.76616753 140.76807322 140.76522390 140.75733926 140.74538592 140.73141372 140.71855383 140.71398941 140.71398941 140.71398941 140.71398941 140.71855383 140.73141372 140.74538592 140.75733926 140.76522390 140.76807322 140.76616753 140.76077748 140.75358495 140.74610574 140.73936085 140.73383382 140.72960511 140.72653223 140.72439485 140.72298149 140.72212795 140.72172714 140.72172714 140.72212795 140.72298149 140.72439485 140.72653223 140.72960511 140.73383382 140.73936085 140.74610574 140.75358495 140.76077748 140.76616753 140.76807322 140.76522390 140.75733926 140.74538592 140.73141372 140.71855383 140.71398941 140.71398941 140.71398941 140.71398941 140.71398941 140.72908064 140.74321982 140.75530513 140.76363554 140.76721349 140.76617384 140.76161839 140.75509848 140.74806960 140.74155904 140.73609782 140.73182686 140.72865812 140.72641152 140.72490133 140.72397774 140.72354059 140.72354059 140.72397774 140.72490133 140.72641152 140.72865812 140.73182686 140.73609782 140.74155904 140.74806960 140.75509848 140.76161839 140.76617384 140.76721349 140.76363554 140.75530513 140.74321982 140.72908064 140.71398941 140.71398941 140.71398941 140.71398941 140.71398941 140.71398941 140.72624319 140.73922375 140.75121724 140.76026139 140.76514301 140.76571549 140.76276914 140.75760265 140.75153845 140.74559324 140.74036975 140.73611306 140.73283497 140.73043323 140.72877432 140.72773909 140.72724301 140.72724301 140.72773909 140.72877432 140.73043323 140.73283497 140.73611306 140.74036975 140.74559324 140.75153845 140.75760265 140.76276914 140.76571549 140.76514301 140.76026139 140.75121724 140.73922375 140.72624319 140.71398941 140.71398941 140.71398941 140.71398941 140.71398941 140.71398941 140.72179651 140.73312614 140.74494549 140.75480998 140.76130955 140.76399678 140.76327838 140.76010661 140.75558733 140.75067541 140.74603018 140.74201233 140.73875901 140.73627435 140.73450159 140.73336965 140.73281983 140.73281983 140.73336965 140.73450159 140.73627435 140.73875901 140.74201233 140.74603018 140.75067541 140.75558733 140.76010661 140.76327838 140.76399678 140.76130955 140.75480998 140.74494549 140.73312614 140.72179651 140.71398941 140.71398941 140.71398941 140.71398941 140.71398941 140.71398941 140.71398941 140.72462374 140.73658232 140.74716217 140.75523323 140.76017167 140.76200984 140.76131076 140.75888684 140.75555478 140.75197464 140.74859318 140.74566719 140.74331724 140.74157878 140.74044208 140.73988262 140.73988262 140.74044208 140.74157878 140.74331724 140.74566719 140.74859318 140.75197464 140.75555478 140.75888684 140.76131076 140.76200984 140.76017167 140.75523323 140.74716217 140.73658232 140.72462374 140.71398941 140.71398941 140.71398941 140.71398941 140.71398941 140.71398941 140.71398941 140.71398941 140.71398941 140.72700444 140.73763544 140.74678798 140.75367797 140.75798538 140.75991201 140.75992920 140.75864214 140.75663427 140.75437153 140.75218918 140.75030827 140.74885447 140.74788025 140.74739503 140.74739503 140.74788025 140.74885447 140.75030827 140.75218918 140.75437153 140.75663427 140.75864214 140.75992920 140.75991201 140.75798538 140.75367797 140.74678798 140.73763544 140.72700444 140.71398941 140.71398941 140.71398941 140.71398941 140.71398941 140.71398941 140.71398941 140.71398941 140.71398941 140.71398941 140.71936338 140.72693187 140.73633624 140.74452689 140.75074722 140.75501623 140.75743957 140.75837800 140.75827424 140.75752541 140.75647768 140.75541516 140.75453304 140.75392706 140.75362352 140.75362352 140.75392706 140.75453304 140.75541516 140.75647768 140.75752541 140.75827424 140.75837800 140.75743957 140.75501623 140.75074722 140.74452689 140.73633624 140.72693187 140.71936338 140.71398941 140.71398941 140.71398941 140.71398941 140.71398941 140.71398941 140.71398941 140.71398941 140.71398941 140.71398941 140.71398941 140.71398941 140.72462913 140.73349059 140.74057808 140.74650996 140.75084597 140.75376607 140.75555594 140.75644263 140.75671402 140.75668375 140.75659202 140.75653508 140.75651372 140.75651372 140.75653508 140.75659202 140.75668375 140.75671402 140.75644263 140.75555594 140.75376607 140.75084597 140.74650996 140.74057808 140.73349059 140.72462913 140.71398941 140.71398941 140.71398941 140.71398941 140.71398941 140.71398941 140.71398941 140.71398941 140.71398941 140.71398941 140.71398941 140.71398941 140.71398941 140.71398941 140.71398941 140.72237750 140.72832216 140.73522047 140.74056766 140.74482615 140.74813719 140.75040326 140.75182937 140.75277808 140.75354522 140.75414581 140.75447387 140.75447387 140.75414581 140.75354522 140.75277808 140.75182937 140.75040326 140.74813719 140.74482615 140.74056766 140.73522047 140.72832216 140.72237750 140.71398941 140.71398941 140.71398941 140.71398941 140.71398941 140.71398941 140.71398941 140.71398941 140.71398941 140.71398941 140.71398941 140.71398941 140.71398941 140.71398941 140.71398941 140.71398941 140.71398941 140.71398941 140.72294990 140.72788719 140.73274314 140.73701488 140.74002190 140.74203409 140.74358960 140.74517687 140.74650227 140.74721141 140.74721141 140.74650227 140.74517687 140.74358960 140.74203409 140.74002190 140.73701488 140.73274314 140.72788719 140.72294990 140.71398941 140.71398941 140.71398941 140.71398941 140.71398941 140.71398941 140.71398941 140.71398941 140.71398941 140.71398941 140.71398941 140.71398941 140.71398941 140.71398941 140.71398941 140.71398941 140.71398941 140.71398941 140.71398941 140.71398941 140.71398941 140.71398941 140.72002934 140.72452952 140.72714092 140.72876373 140.73022659 140.73285362 140.73505918 140.73613853 140.73613853 140.73505918 140.73285362 140.73022659 140.72876373 140.72714092 140.72452952 140.72002934 140.71398941 140.71398941 140.71398941 140.71398941 140.71398941 140.71398941 140.71398941 140.71398941 140.71398941 140.71398941 140.71398941 140.71398941 140.71398941 140.71398941 140.71398941 140.71398941 140.71398941 140.71398941 140.71398941 140.71398941 140.71398941 140.71398941 140.71398941 140.71398941 140.71398941 140.71398941 140.71398941 140.71398941 140.71398941 140.71970979 140.72289021 140.72408060 140.72408060 140.72289021 140.71970979 140.71398941 140.71398941 140.71398941 140.71398941 140.71398941 140.71398941 140.71398941 140.71398941 140.71398941 140.71398941 140.71398941 140.71398941 140.71398941 140.71398941 140.71398941 140.71398941 140.71398941 140.71398941 140.71398941 140.71398941 140.71398941 140.71398941 140.71398941 140.71398941 140.71398941 140.71398941 140.71398941 140.71398941 140.71398941 140.71398941 140.71398941 140.71398941 140.71398941 140.71398941 140.71398941 140.71398941 140.71398941 140.71398941 140.71398941 140.71398941 140.71398941 140.71398941 140.71398941 140.71398941 140.71398941 140.71398941 140.71398941 140.71398941 140.71398941 140.71398941 140.71398941 140.71398941 140.71398941 140.71398941 140.71398941 140.71398941 140.71398941 140.71398941 140.71398941 140.71398941 140.71398941 140.71398941 140.71398941 140.71398941 140.71398941 140.71398941 140.71398941 140.71398941 140.71398941 140.71398941 140.71398941 140.71398941 140.71398941 140.71398941 140.71398941 140.71398941 140.71398941 140.71398941 140.71398941 140.71398941 140.71398941 140.71398941 140.71398941 140.71398941 140.71398941 140.71398941 140.71398941 140.71398941 140.71398941 140.71398941 140.71398941 140.71398941 140.71398941 140.71398941 140.71398941 140.71398941 140.71398941 140.71398941 140.71398941 140.71398941 140.71398941 140.71398941 140.71398941 140.71398941 140.71398941 140.71398941 140.71398941 140.71398941 140.71398941 140.71398941 140.71398941 140.71398941 140.71398941 140.71398941 140.71398941 140.71398941 140.71398941 140.71398941 140.71398941 140.71398941 140.71398941 140.71398941 140.71398941 140.71398941 140.71398941 140.71398941 140.71398941 140.71398941 140.71398941 140.71398941 140.71398941 140.71398941 140.71398941 140.71398941 140.71398941 140.71398941 140.71398941 140.71398941 140.71398941 140.71398941 140.71398941 140.71398941 140.71398941 140.71398941 140.71398941 140.71398941 140.71398941 140.71398941 140.71398941 140.71398941 140.71398941 140.71398941 140.71398941 140.71398941 140.71398941 140.71398941 140.71398941 140.71398941 140.71398941 140.71398941 140.71398941 140.71398941 140.71398941 140.71398941 140.71398941 140.71398941 140.71398941 140.71398941 140.71398941 140.71398941 140.71398941 140.71398941 140.71398941 140.71398941 140.71398941 140.71398941 140.71398941 140.71398941 140.71398941 140.71398941 140.71398941 140.71398941 140.71398941 140.71398941 140.71398941 140.71398941 140.71398941 140.71398941 140.71398941 140.71398941 140.71398941 140.71398941 140.71398941 140.71398941 140.71398941 140.71398941 140.71398941 140.71398941 140.71398941 140.71398941 140.71398941 140.71398941 140.71398941 140.71398941 140.71398941 140.71398941 140.71398941 140.71398941 140.71398941 140.71398941 140.71398941 140.71398941 140.71398941 140.71398941 140.71398941 140.71398941 140.71398941 140.71398941 140.71398941 140.71398941 140.71398941 140.71398941 140.71398941 140.71398941 140.71398941 140.71398941 140.71398941 140.71398941 140.71398941 140.71398941 140.71398941 140.71398941 140.71398941 140.71398941 140.71398941 140.71398941 140.71398941 140.71398941 140.71398941 140.71398941 140.71398941 140.71398941 140.71398941 140.71398941 140.71398941 140.71398941 140.71398941 140.71398941 140.71398941 140.71398941 140.71398941 140.71398941 140.71398941 140.71398941 140.71398941 140.71398941 140.71398941 140.71398941 140.71398941 140.71398941 140.71398941 140.71398941 140.71398941 140.71398941 140.71398941 140.71398941 140.71398941 140.71398941 140.71398941 140.71398941 140.71398941 140.71398941 140.71398941 140.71398941 140.71398941 140.71398941 140.71398941 140.71398941 140.71398941 140.71398941 140.71398941 140.71398941 140.71398941 140.71398941 140.71398941 140.71398941 140.71398941 140.71398941 140.71398941 140.71398941 140.71398941 140.71398941 140.71398941 140.71398941 140.71398941 140.71398941 140.71398941 140.71398941 140.71398941 140.71398941 140.71398941 140.71398941 140.71398941 140.71398941 140.71398941 140.71398941 140.71398941 140.71398941 140.71398941 140.71398941 140.71398941 140.71398941 140.71398941 140.71398941 140.71398941 140.71398941 140.71398941 140.71398941 140.71398941 140.71398941 140.71398941 140.71398941 140.71398941 140.71398941 140.71398941 140.71398941 140.71398941 140.71398941 140.71398941 140.71398941 140.71398941 140.71398941 140.71398941 140.71398941 140.71398941 140.71398941 140.71398941 