# vtk DataFile Version 3.0
VTK - Matlab export
ASCII
DATASET STRUCTURED_POINTS
DIMENSIONS 40 40 1
SPACING 1 1 1
ORIGIN 0 0 0
POINT_DATA 1600
SCALARS lambda-2 float 1
LOOKUP_TABLE default
8.35311101 8.35311101 8.35311101 8.35311101 8.35311101 8.35311101 8.35311101 8.35311101 8.35311101 8.35311101 8.35311101 8.35311101 8.35311101 8.35311101 8.35311101 8.35311101 8.35311101 8.35311101 8.35311101 8.35311101 8.35311101 8.35311101 8.35311101 8.35311101 8.35311101 8.35311101 8.35311101 8.35311101 8.35311101 8.35311101 8.35311101 8.35311101 8.35311101 8.35311101 8.35311101 8.35311101 8.35311101 8.35311101 8.35311101 8.35311101 8.35311101 8.35311101 8.35311101 8.35311101 8.35311101 8.35311101 8.35311101 8.35311101 8.35311101 8.35311101 8.35311101 8.35311101 8.35311101 8.35311101 8.35311101 8.35311101 8.35311101 8.35311101 8.35311101 8.35311101 8.35311101 8.35311101 8.35311101 8.35311101 8.35311101 8.35311101 8.35311101 8.35311101 8.35311101 8.35311101 8.35311101 8.35311101 8.35311101 8.35311101 8.35311101 8.35311101 8.35311101 8.35311101 8.35311101 8.35311101 8.35311101 8.35311101 8.35311101 8.35311101 8.35311101 8.35311101 8.35311101 8.35311101 8.35311101 8.35311101 8.35311101 8.35311101 8.35311101 8.35311101 8.35311101 8.35311101 8.35311101 8.35311101 8.35311101 8.35311101 8.35311101 8.35311101 8.35311101 8.35311101 8.35311101 8.35311101 8.35311101 8.35311101 8.35311101 8.35311101 8.35311101 8.35311101 8.35311101 8.35311101 8.35311101 8.35311101 8.35311101 8.35311101 8.35311101 8.35311101 8.35311101 8.35311101 8.35311101 8.35311101 8.35311101 8.35311101 8.35311101 8.35311101 8.35311101 8.35311101 8.35311101 8.35311101 8.35311101 8.35311101 8.35311101 8.35311101 8.35311101 8.35311101 8.35311101 8.35311101 8.35311101 8.35311101 8.35311101 8.35311101 8.35311101 8.35311101 8.35311101 8.35311101 8.35311101 8.35311101 8.35311101 8.35311101 8.35311101 8.35311101 8.35311101 8.35311101 8.35311101 8.35311101 8.35311101 8.35311101 8.35311101 8.35311101 8.35311101 8.35311101 8.35311101 8.35311101 8.35311101 8.35311101 8.35311101 8.35311101 8.35311101 8.35311101 8.35311101 8.35311101 8.35311101 8.35311101 8.35311101 8.35311101 8.35311101 8.35311101 8.35311101 8.35311101 8.35311101 8.35311101 8.35311101 8.35311101 8.35311101 8.35311101 8.35311101 8.35311101 8.35311101 8.35311101 8.35311101 8.35311101 8.35311101 8.35311101 8.35311101 8.35311101 8.35311101 8.35311101 8.35311101 8.35311101 8.35311101 8.35311101 8.35311101 8.35311101 8.35311101 8.35311101 8.35311101 8.35311101 8.35311101 8.35311101 8.35311101 8.35311101 8.35311101 8.35311101 8.35311101 8.35311101 8.35311101 8.35311101 8.35311101 8.35311101 8.35311101 8.35311101 8.35311101 8.35311101 8.35311101 8.35311101 8.35311101 8.35311101 8.35311101 8.35311101 8.35311101 8.35311101 8.35311101 8.35311101 8.35311101 8.35311101 8.35311101 8.35311101 8.35311101 8.35311101 8.35311101 8.35311101 8.35311101 8.35311101 8.35311101 8.35311101 8.35311101 8.35311101 8.35311101 8.35311101 8.35311101 8.35311101 8.35311101 8.35311101 8.35311101 8.35311101 8.35311101 8.35311101 8.35311101 8.35311101 8.35311101 8.35311101 8.35311101 8.35311101 8.35311101 8.35311101 8.35311101 8.35311101 8.35311101 8.35311101 8.35311101 8.35311101 8.35311101 8.35311101 8.35311101 8.35311101 8.35311101 8.35311101 8.35311101 8.35311101 8.35311101 8.35311101 8.35311101 8.35311101 8.35311101 8.35311101 8.35311101 8.35311101 8.35311101 8.35311101 8.35311101 8.35311101 8.35311101 8.35311101 8.35311101 8.35311101 8.35311101 8.35311101 8.35311101 8.35311101 8.35311101 8.35311101 8.35311101 8.35311101 8.35311101 8.35311101 8.35311101 8.35311101 8.35311101 8.35311101 8.35311101 8.35311101 8.35311101 8.35311101 8.35311101 8.35311101 8.35311101 8.35311101 8.35311101 8.35311101 8.35311101 8.35311101 8.35311101 8.35311101 8.35311101 8.35311101 8.35311101 8.35311101 8.35311101 8.35311101 8.35311101 8.35311101 8.35311101 8.35311101 8.35311101 8.34272056 8.33660775 8.33420505 8.33420505 8.33660775 8.34272056 8.35311101 8.35311101 8.35311101 8.35311101 8.35311101 8.35311101 8.35311101 8.35311101 8.35311101 8.35311101 8.35311101 8.35311101 8.35311101 8.35311101 8.35311101 8.35311101 8.35311101 8.35311101 8.35311101 8.35311101 8.35311101 8.35311101 8.35311101 8.35311101 8.35311101 8.35311101 8.35311101 8.35311101 8.35311101 8.34218535 8.33410214 8.32973652 8.32736830 8.32521703 8.32059309 8.31641063 8.31427030 8.31427030 8.31641063 8.32059309 8.32521703 8.32736830 8.32973652 8.33410214 8.34218535 8.35311101 8.35311101 8.35311101 8.35311101 8.35311101 8.35311101 8.35311101 8.35311101 8.35311101 8.35311101 8.35311101 8.35311101 8.35311101 8.35311101 8.35311101 8.35311101 8.35311101 8.35311101 8.35311101 8.35311101 8.35311101 8.35311101 8.33704235 8.32856459 8.32056737 8.31391636 8.30988739 8.30780905 8.30635810 8.30435717 8.30234170 8.30117053 8.30117053 8.30234170 8.30435717 8.30635810 8.30780905 8.30988739 8.31391636 8.32056737 8.32856459 8.33704235 8.35311101 8.35311101 8.35311101 8.35311101 8.35311101 8.35311101 8.35311101 8.35311101 8.35311101 8.35311101 8.35311101 8.35311101 8.35311101 8.35311101 8.35311101 8.35311101 8.35311101 8.35311101 8.33820517 8.32813926 8.31689926 8.30921857 8.30404749 8.30082628 8.29953204 8.29956437 8.30000035 8.30012058 8.29990710 8.29969348 8.29969348 8.29990710 8.30012058 8.30000035 8.29956437 8.29953204 8.30082628 8.30404749 8.30921857 8.31689926 8.32813926 8.33820517 8.35311101 8.35311101 8.35311101 8.35311101 8.35311101 8.35311101 8.35311101 8.35311101 8.35311101 8.35311101 8.35311101 8.35311101 8.35311101 8.35311101 8.35311101 8.33458557 8.31994604 8.30965667 8.30244901 8.29881109 8.29790936 8.29876393 8.30070788 8.30310351 8.30533216 8.30697305 8.30794521 8.30837564 8.30837564 8.30794521 8.30697305 8.30533216 8.30310351 8.30070788 8.29876393 8.29790936 8.29881109 8.30244901 8.30965667 8.31994604 8.33458557 8.35311101 8.35311101 8.35311101 8.35311101 8.35311101 8.35311101 8.35311101 8.35311101 8.35311101 8.35311101 8.35311101 8.35311101 8.34345415 8.33059640 8.31581276 8.30488506 8.29892303 8.29716147 8.29862206 8.30201143 8.30618572 8.31040179 8.31420131 8.31729579 8.31954741 8.32096692 8.32164242 8.32164242 8.32096692 8.31954741 8.31729579 8.31420131 8.31040179 8.30618572 8.30201143 8.29862206 8.29716147 8.29892303 8.30488506 8.31581276 8.33059640 8.34345415 8.35311101 8.35311101 8.35311101 8.35311101 8.35311101 8.35311101 8.35311101 8.35311101 8.35311101 8.35311101 8.33020155 8.31355870 8.30209199 8.29669416 8.29672637 8.30049821 8.30623318 8.31247191 8.31827367 8.32319941 8.32712879 8.33008858 8.33216492 8.33346599 8.33408885 8.33408885 8.33346599 8.33216492 8.33008858 8.32712879 8.32319941 8.31827367 8.31247191 8.30623318 8.30049821 8.29672637 8.29669416 8.30209199 8.31355870 8.33020155 8.35311101 8.35311101 8.35311101 8.35311101 8.35311101 8.35311101 8.35311101 8.35311101 8.35311101 8.33384922 8.31434793 8.30072782 8.29468795 8.29561547 8.30131178 8.30921513 8.31733070 8.32449995 8.33027629 8.33466441 8.33786887 8.34012984 8.34165187 8.34258622 8.34303013 8.34303013 8.34258622 8.34165187 8.34012984 8.33786887 8.33466441 8.33027629 8.32449995 8.31733070 8.30921513 8.30131178 8.29561547 8.29468795 8.30072782 8.31434793 8.33384922 8.35311101 8.35311101 8.35311101 8.35311101 8.35311101 8.35311101 8.35311101 8.33836182 8.31872533 8.30190566 8.29301452 8.29297992 8.29958258 8.30938186 8.31944284 8.32808161 8.33473989 8.33953162 8.34283860 8.34506679 8.34654246 8.34749273 8.34806078 8.34832718 8.34832718 8.34806078 8.34749273 8.34654246 8.34506679 8.34283860 8.33953162 8.33473989 8.32808161 8.31944284 8.30938186 8.29958258 8.29297992 8.29301452 8.30190566 8.31872533 8.33836182 8.35311101 8.35311101 8.35311101 8.35311101 8.35311101 8.35311101 8.33014610 8.30867426 8.29410383 8.28979156 8.29490526 8.30562508 8.31771106 8.32832389 8.33636376 8.34190266 8.34549834 8.34775814 8.34916108 8.35003014 8.35056296 8.35087163 8.35101403 8.35101403 8.35087163 8.35056296 8.35003014 8.34916108 8.34775814 8.34549834 8.34190266 8.33636376 8.32832389 8.31771106 8.30562508 8.29490526 8.28979156 8.29410383 8.30867426 8.33014610 8.35311101 8.35311101 8.35311101 8.35311101 8.35311101 8.35311101 8.32514835 8.30271607 8.29007444 8.28926848 8.29793655 8.31108752 8.32410907 8.33446863 8.34162401 8.34611795 8.34877580 8.35030063 8.35117053 8.35167185 8.35196272 8.35212522 8.35219873 8.35219873 8.35212522 8.35196272 8.35167185 8.35117053 8.35030063 8.34877580 8.34611795 8.34162401 8.33446863 8.32410907 8.31108752 8.29793655 8.28926848 8.29007444 8.30271607 8.32514835 8.35311101 8.35311101 8.35311101 8.35311101 8.35311101 8.34440266 8.32093855 8.29962624 8.28842524 8.28955838 8.30000395 8.31422110 8.32749287 8.33752501 8.34410005 8.34800054 8.35016794 8.35133171 8.35195304 8.35229007 8.35247634 8.35257699 8.35262170 8.35262170 8.35257699 8.35247634 8.35229007 8.35195304 8.35133171 8.35016794 8.34800054 8.34410005 8.33752501 8.32749287 8.31422110 8.30000395 8.28955838 8.28842524 8.29962624 8.32093855 8.34440266 8.35311101 8.35311101 8.35311101 8.35311101 8.34440266 8.32093855 8.29962624 8.28842524 8.28955838 8.30000395 8.31422110 8.32749287 8.33752501 8.34410005 8.34800054 8.35016794 8.35133171 8.35195304 8.35229007 8.35247634 8.35257699 8.35262170 8.35262170 8.35257699 8.35247634 8.35229007 8.35195304 8.35133171 8.35016794 8.34800054 8.34410005 8.33752501 8.32749287 8.31422110 8.30000395 8.28955838 8.28842524 8.29962624 8.32093855 8.34440266 8.35311101 8.35311101 8.35311101 8.35311101 8.35311101 8.32514835 8.30271607 8.29007444 8.28926848 8.29793655 8.31108752 8.32410907 8.33446863 8.34162401 8.34611795 8.34877580 8.35030063 8.35117053 8.35167185 8.35196272 8.35212522 8.35219873 8.35219873 8.35212522 8.35196272 8.35167185 8.35117053 8.35030063 8.34877580 8.34611795 8.34162401 8.33446863 8.32410907 8.31108752 8.29793655 8.28926848 8.29007444 8.30271607 8.32514835 8.35311101 8.35311101 8.35311101 8.35311101 8.35311101 8.35311101 8.33014610 8.30867426 8.29410383 8.28979156 8.29490526 8.30562508 8.31771106 8.32832389 8.33636376 8.34190266 8.34549834 8.34775814 8.34916108 8.35003014 8.35056296 8.35087163 8.35101403 8.35101403 8.35087163 8.35056296 8.35003014 8.34916108 8.34775814 8.34549834 8.34190266 8.33636376 8.32832389 8.31771106 8.30562508 8.29490526 8.28979156 8.29410383 8.30867426 8.33014610 8.35311101 8.35311101 8.35311101 8.35311101 8.35311101 8.35311101 8.33836182 8.31872533 8.30190566 8.29301452 8.29297992 8.29958258 8.30938186 8.31944284 8.32808161 8.33473989 8.33953162 8.34283860 8.34506679 8.34654246 8.34749273 8.34806078 8.34832718 8.34832718 8.34806078 8.34749273 8.34654246 8.34506679 8.34283860 8.33953162 8.33473989 8.32808161 8.31944284 8.30938186 8.29958258 8.29297992 8.29301452 8.30190566 8.31872533 8.33836182 8.35311101 8.35311101 8.35311101 8.35311101 8.35311101 8.35311101 8.35311101 8.33384922 8.31434793 8.30072782 8.29468795 8.29561547 8.30131178 8.30921513 8.31733070 8.32449995 8.33027629 8.33466441 8.33786887 8.34012984 8.34165187 8.34258622 8.34303013 8.34303013 8.34258622 8.34165187 8.34012984 8.33786887 8.33466441 8.33027629 8.32449995 8.31733070 8.30921513 8.30131178 8.29561547 8.29468795 8.30072782 8.31434793 8.33384922 8.35311101 8.35311101 8.35311101 8.35311101 8.35311101 8.35311101 8.35311101 8.35311101 8.35311101 8.33020155 8.31355870 8.30209199 8.29669416 8.29672637 8.30049821 8.30623318 8.31247191 8.31827367 8.32319941 8.32712879 8.33008858 8.33216492 8.33346599 8.33408885 8.33408885 8.33346599 8.33216492 8.33008858 8.32712879 8.32319941 8.31827367 8.31247191 8.30623318 8.30049821 8.29672637 8.29669416 8.30209199 8.31355870 8.33020155 8.35311101 8.35311101 8.35311101 8.35311101 8.35311101 8.35311101 8.35311101 8.35311101 8.35311101 8.35311101 8.34345415 8.33059640 8.31581276 8.30488506 8.29892303 8.29716147 8.29862206 8.30201143 8.30618572 8.31040179 8.31420131 8.31729579 8.31954741 8.32096692 8.32164242 8.32164242 8.32096692 8.31954741 8.31729579 8.31420131 8.31040179 8.30618572 8.30201143 8.29862206 8.29716147 8.29892303 8.30488506 8.31581276 8.33059640 8.34345415 8.35311101 8.35311101 8.35311101 8.35311101 8.35311101 8.35311101 8.35311101 8.35311101 8.35311101 8.35311101 8.35311101 8.35311101 8.33458557 8.31994604 8.30965667 8.30244901 8.29881109 8.29790936 8.29876393 8.30070788 8.30310351 8.30533216 8.30697305 8.30794521 8.30837564 8.30837564 8.30794521 8.30697305 8.30533216 8.30310351 8.30070788 8.29876393 8.29790936 8.29881109 8.30244901 8.30965667 8.31994604 8.33458557 8.35311101 8.35311101 8.35311101 8.35311101 8.35311101 8.35311101 8.35311101 8.35311101 8.35311101 8.35311101 8.35311101 8.35311101 8.35311101 8.35311101 8.35311101 8.33820517 8.32813926 8.31689926 8.30921857 8.30404749 8.30082628 8.29953204 8.29956437 8.30000035 8.30012058 8.29990710 8.29969348 8.29969348 8.29990710 8.30012058 8.30000035 8.29956437 8.29953204 8.30082628 8.30404749 8.30921857 8.31689926 8.32813926 8.33820517 8.35311101 8.35311101 8.35311101 8.35311101 8.35311101 8.35311101 8.35311101 8.35311101 8.35311101 8.35311101 8.35311101 8.35311101 8.35311101 8.35311101 8.35311101 8.35311101 8.35311101 8.35311101 8.33704235 8.32856459 8.32056737 8.31391636 8.30988739 8.30780905 8.30635810 8.30435717 8.30234170 8.30117053 8.30117053 8.30234170 8.30435717 8.30635810 8.30780905 8.30988739 8.31391636 8.32056737 8.32856459 8.33704235 8.35311101 8.35311101 8.35311101 8.35311101 8.35311101 8.35311101 8.35311101 8.35311101 8.35311101 8.35311101 8.35311101 8.35311101 8.35311101 8.35311101 8.35311101 8.35311101 8.35311101 8.35311101 8.35311101 8.35311101 8.35311101 8.35311101 8.34218535 8.33410214 8.32973652 8.32736830 8.32521703 8.32059309 8.31641063 8.31427030 8.31427030 8.31641063 8.32059309 8.32521703 8.32736830 8.32973652 8.33410214 8.34218535 8.35311101 8.35311101 8.35311101 8.35311101 8.35311101 8.35311101 8.35311101 8.35311101 8.35311101 8.35311101 8.35311101 8.35311101 8.35311101 8.35311101 8.35311101 8.35311101 8.35311101 8.35311101 8.35311101 8.35311101 8.35311101 8.35311101 8.35311101 8.35311101 8.35311101 8.35311101 8.35311101 8.35311101 8.35311101 8.34272056 8.33660775 8.33420505 8.33420505 8.33660775 8.34272056 8.35311101 8.35311101 8.35311101 8.35311101 8.35311101 8.35311101 8.35311101 8.35311101 8.35311101 8.35311101 8.35311101 8.35311101 8.35311101 8.35311101 8.35311101 8.35311101 8.35311101 8.35311101 8.35311101 8.35311101 8.35311101 8.35311101 8.35311101 8.35311101 8.35311101 8.35311101 8.35311101 8.35311101 8.35311101 8.35311101 8.35311101 8.35311101 8.35311101 8.35311101 8.35311101 8.35311101 8.35311101 8.35311101 8.35311101 8.35311101 8.35311101 8.35311101 8.35311101 8.35311101 8.35311101 8.35311101 8.35311101 8.35311101 8.35311101 8.35311101 8.35311101 8.35311101 8.35311101 8.35311101 8.35311101 8.35311101 8.35311101 8.35311101 8.35311101 8.35311101 8.35311101 8.35311101 8.35311101 8.35311101 8.35311101 8.35311101 8.35311101 8.35311101 8.35311101 8.35311101 8.35311101 8.35311101 8.35311101 8.35311101 8.35311101 8.35311101 8.35311101 8.35311101 8.35311101 8.35311101 8.35311101 8.35311101 8.35311101 8.35311101 8.35311101 8.35311101 8.35311101 8.35311101 8.35311101 8.35311101 8.35311101 8.35311101 8.35311101 8.35311101 8.35311101 8.35311101 8.35311101 8.35311101 8.35311101 8.35311101 8.35311101 8.35311101 8.35311101 8.35311101 8.35311101 8.35311101 8.35311101 8.35311101 8.35311101 8.35311101 8.35311101 8.35311101 8.35311101 8.35311101 8.35311101 8.35311101 8.35311101 8.35311101 8.35311101 8.35311101 8.35311101 8.35311101 8.35311101 8.35311101 8.35311101 8.35311101 8.35311101 8.35311101 8.35311101 8.35311101 8.35311101 8.35311101 8.35311101 8.35311101 8.35311101 8.35311101 8.35311101 8.35311101 8.35311101 8.35311101 8.35311101 8.35311101 8.35311101 8.35311101 8.35311101 8.35311101 8.35311101 8.35311101 8.35311101 8.35311101 8.35311101 8.35311101 8.35311101 8.35311101 8.35311101 8.35311101 8.35311101 8.35311101 8.35311101 8.35311101 8.35311101 8.35311101 8.35311101 8.35311101 8.35311101 8.35311101 8.35311101 8.35311101 8.35311101 8.35311101 8.35311101 8.35311101 8.35311101 8.35311101 8.35311101 8.35311101 8.35311101 8.35311101 8.35311101 8.35311101 8.35311101 8.35311101 8.35311101 8.35311101 8.35311101 8.35311101 8.35311101 8.35311101 8.35311101 8.35311101 8.35311101 8.35311101 8.35311101 8.35311101 8.35311101 8.35311101 8.35311101 8.35311101 8.35311101 8.35311101 8.35311101 8.35311101 8.35311101 8.35311101 8.35311101 8.35311101 8.35311101 8.35311101 8.35311101 8.35311101 8.35311101 8.35311101 8.35311101 8.35311101 8.35311101 8.35311101 8.35311101 8.35311101 8.35311101 8.35311101 8.35311101 8.35311101 8.35311101 8.35311101 8.35311101 8.35311101 8.35311101 8.35311101 8.35311101 8.35311101 8.35311101 8.35311101 8.35311101 8.35311101 8.35311101 8.35311101 8.35311101 8.35311101 8.35311101 8.35311101 8.35311101 8.35311101 8.35311101 8.35311101 8.35311101 8.35311101 8.35311101 8.35311101 8.35311101 8.35311101 8.35311101 8.35311101 8.35311101 8.35311101 8.35311101 8.35311101 8.35311101 8.35311101 8.35311101 8.35311101 8.35311101 8.35311101 8.35311101 8.35311101 8.35311101 8.35311101 8.35311101 8.35311101 8.35311101 8.35311101 8.35311101 8.35311101 8.35311101 8.35311101 8.35311101 8.35311101 8.35311101 8.35311101 8.35311101 8.35311101 8.35311101 8.35311101 8.35311101 8.35311101 8.35311101 8.35311101 8.35311101 8.35311101 8.35311101 8.35311101 8.35311101 8.35311101 8.35311101 8.35311101 8.35311101 8.35311101 8.35311101 8.35311101 8.35311101 8.35311101 8.35311101 8.35311101 8.35311101 8.35311101 8.35311101 8.35311101 8.35311101 8.35311101 8.35311101 8.35311101 8.35311101 8.35311101 8.35311101 8.35311101 8.35311101 8.35311101 8.35311101 8.35311101 8.35311101 8.35311101 8.35311101 8.35311101 8.35311101 8.35311101 8.35311101 8.35311101 8.35311101 8.35311101 8.35311101 8.35311101 8.35311101 8.35311101 8.35311101 8.35311101 8.35311101 8.35311101 8.35311101 