# vtk DataFile Version 3.0
VTK - Matlab export
ASCII
DATASET STRUCTURED_POINTS
DIMENSIONS 40 40 1
SPACING 1 1 1
ORIGIN 0 0 0
POINT_DATA 1600
SCALARS lambda-2 float 1
LOOKUP_TABLE default
8.35311101 8.35311101 8.35311101 8.35311101 8.35311101 8.35311101 8.35311101 8.35311101 8.35311101 8.35311101 8.35311101 8.35311101 8.35311101 8.35311101 8.35311101 8.35311101 8.35311101 8.35311101 8.35311101 8.35311101 8.35311101 8.35311101 8.35311101 8.35311101 8.35311101 8.35311101 8.35311101 8.35311101 8.35311101 8.35311101 8.35311101 8.35311101 8.35311101 8.35311101 8.35311101 8.35311101 8.35311101 8.35311101 8.35311101 8.35311101 8.35311101 8.35311101 8.35311101 8.35311101 8.35311101 8.35311101 8.35311101 8.35311101 8.35311101 8.35311101 8.35311101 8.35311101 8.35311101 8.35311101 8.35311101 8.35311101 8.35311101 8.35311101 8.35311101 8.35311101 8.35311101 8.35311101 8.35311101 8.35311101 8.35311101 8.35311101 8.35311101 8.35311101 8.35311101 8.35311101 8.35311101 8.35311101 8.35311101 8.35311101 8.35311101 8.35311101 8.35311101 8.35311101 8.35311101 8.35311101 8.35311101 8.35311101 8.35311101 8.35311101 8.35311101 8.35311101 8.35311101 8.35311101 8.35311101 8.35311101 8.35311101 8.35311101 8.35311101 8.35311101 8.35311101 8.35311101 8.35311101 8.35311101 8.35311101 8.35311101 8.35311101 8.35311101 8.35311101 8.35311101 8.35311101 8.35311101 8.35311101 8.35311101 8.35311101 8.35311101 8.35311101 8.35311101 8.35311101 8.35311101 8.35311101 8.35311101 8.35311101 8.35311101 8.35311101 8.35311101 8.35311101 8.35311101 8.35311101 8.35311101 8.35311101 8.35311101 8.35311101 8.35311101 8.35311101 8.35311101 8.35311101 8.35311101 8.35311101 8.35311101 8.35311101 8.35311101 8.35311101 8.35311101 8.35311101 8.35311101 8.35311101 8.35311101 8.35311101 8.35311101 8.35311101 8.35311101 8.35311101 8.35311101 8.35311101 8.35311101 8.35311101 8.35311101 8.35311101 8.35311101 8.35311101 8.35311101 8.35311101 8.35311101 8.35311101 8.35311101 8.35311101 8.35311101 8.35311101 8.35311101 8.35311101 8.35311101 8.35311101 8.35311101 8.35311101 8.35311101 8.35311101 8.35311101 8.35311101 8.35311101 8.35311101 8.35311101 8.35311101 8.35311101 8.35311101 8.35311101 8.35311101 8.35311101 8.35311101 8.35311101 8.35311101 8.35311101 8.35311101 8.35311101 8.35311101 8.35311101 8.35311101 8.35311101 8.35311101 8.35311101 8.35311101 8.35311101 8.35311101 8.35311101 8.35311101 8.35311101 8.35311101 8.35311101 8.35311101 8.35311101 8.35311101 8.35311101 8.35311101 8.35311101 8.35311101 8.35311101 8.35311101 8.35311101 8.35311101 8.35311101 8.35311101 8.35311101 8.35311101 8.35311101 8.35311101 8.35311101 8.35311101 8.35311101 8.35311101 8.35311101 8.35311101 8.35311101 8.35311101 8.35311101 8.35311101 8.35311101 8.35311101 8.35311101 8.35311101 8.35311101 8.35311101 8.35311101 8.35311101 8.35311101 8.35311101 8.35311101 8.35311101 8.35311101 8.35311101 8.35311101 8.35311101 8.35311101 8.35311101 8.35311101 8.35311101 8.35311101 8.35311101 8.35311101 8.35311101 8.35311101 8.35311101 8.35311101 8.35311101 8.35311101 8.35311101 8.35311101 8.35311101 8.35311101 8.35311101 8.35311101 8.35311101 8.35311101 8.35311101 8.35311101 8.35311101 8.35311101 8.35311101 8.35311101 8.35311101 8.35311101 8.35311101 8.35311101 8.35311101 8.35311101 8.35311101 8.35311101 8.35311101 8.35311101 8.35311101 8.35311101 8.35311101 8.35311101 8.35311101 8.35311101 8.35311101 8.35311101 8.35311101 8.35311101 8.35311101 8.35311101 8.35311101 8.35311101 8.35311101 8.35311101 8.35311101 8.35311101 8.35311101 8.35311101 8.35311101 8.35311101 8.35311101 8.35311101 8.35311101 8.35311101 8.35311101 8.35311101 8.35311101 8.35311101 8.35311101 8.35311101 8.35311101 8.35311101 8.35311101 8.35311101 8.35311101 8.35311101 8.35311101 8.35311101 8.35311101 8.35311101 8.35311101 8.35311101 8.35311101 8.35311101 8.35311101 8.35311101 8.35311101 8.35311101 8.35311101 8.35311101 8.35311101 8.35311101 8.35311101 8.35143710 8.35053806 8.35020996 8.35020996 8.35053806 8.35143710 8.35311101 8.35311101 8.35311101 8.35311101 8.35311101 8.35311101 8.35311101 8.35311101 8.35311101 8.35311101 8.35311101 8.35311101 8.35311101 8.35311101 8.35311101 8.35311101 8.35311101 8.35311101 8.35311101 8.35311101 8.35311101 8.35311101 8.35311101 8.35311101 8.35311101 8.35311101 8.35311101 8.35311101 8.35311101 8.35134516 8.35002377 8.34922230 8.34868767 8.34820505 8.34741776 8.34678177 8.34647607 8.34647607 8.34678177 8.34741776 8.34820505 8.34868767 8.34922230 8.35002377 8.35134516 8.35311101 8.35311101 8.35311101 8.35311101 8.35311101 8.35311101 8.35311101 8.35311101 8.35311101 8.35311101 8.35311101 8.35311101 8.35311101 8.35311101 8.35311101 8.35311101 8.35311101 8.35311101 8.35311101 8.35311101 8.35311101 8.35311101 8.35049026 8.34899740 8.34748650 8.34610889 8.34505958 8.34428180 8.34365585 8.34307112 8.34261594 8.34237934 8.34237934 8.34261594 8.34307112 8.34365585 8.34428180 8.34505958 8.34610889 8.34748650 8.34899740 8.35049026 8.35311101 8.35311101 8.35311101 8.35311101 8.35311101 8.35311101 8.35311101 8.35311101 8.35311101 8.35311101 8.35311101 8.35311101 8.35311101 8.35311101 8.35311101 8.35311101 8.35311101 8.35311101 8.35068071 8.34887803 8.34671772 8.34490170 8.34331766 8.34195834 8.34088128 8.34006379 8.33944048 8.33895487 8.33861107 8.33843412 8.33843412 8.33861107 8.33895487 8.33944048 8.34006379 8.34088128 8.34195834 8.34331766 8.34490170 8.34671772 8.34887803 8.35068071 8.35311101 8.35311101 8.35311101 8.35311101 8.35311101 8.35311101 8.35311101 8.35311101 8.35311101 8.35311101 8.35311101 8.35311101 8.35311101 8.35311101 8.35311101 8.35004156 8.34734549 8.34496977 8.34275001 8.34084441 8.33926106 8.33798401 8.33700347 8.33628166 8.33576207 8.33539450 8.33515439 8.33503527 8.33503527 8.33515439 8.33539450 8.33576207 8.33628166 8.33700347 8.33798401 8.33926106 8.34084441 8.34275001 8.34496977 8.34734549 8.35004156 8.35311101 8.35311101 8.35311101 8.35311101 8.35311101 8.35311101 8.35311101 8.35311101 8.35311101 8.35311101 8.35311101 8.35311101 8.35164433 8.34946739 8.34657049 8.34373152 8.34115550 8.33890028 8.33703488 8.33556678 8.33446523 8.33368275 8.33315690 8.33281973 8.33261189 8.33249232 8.33243776 8.33243776 8.33249232 8.33261189 8.33281973 8.33315690 8.33368275 8.33446523 8.33556678 8.33703488 8.33890028 8.34115550 8.34373152 8.34657049 8.34946739 8.35164433 8.35311101 8.35311101 8.35311101 8.35311101 8.35311101 8.35311101 8.35311101 8.35311101 8.35311101 8.35311101 8.34955922 8.34638099 8.34320767 8.34022409 8.33758735 8.33538796 8.33366916 8.33241829 8.33158035 8.33107666 8.33081848 8.33071941 8.33070626 8.33072530 8.33074281 8.33074281 8.33072530 8.33070626 8.33071941 8.33081848 8.33107666 8.33158035 8.33241829 8.33366916 8.33538796 8.33758735 8.34022409 8.34320767 8.34638099 8.34955922 8.35311101 8.35311101 8.35311101 8.35311101 8.35311101 8.35311101 8.35311101 8.35311101 8.35311101 8.35032837 8.34694602 8.34347853 8.34011386 8.33704897 8.33443938 8.33237549 8.33088107 8.32991805 8.32940262 8.32922619 8.32927413 8.32944063 8.32963860 8.32980416 8.32989669 8.32989669 8.32980416 8.32963860 8.32944063 8.32927413 8.32922619 8.32940262 8.32991805 8.33088107 8.33237549 8.33443938 8.33704897 8.34011386 8.34347853 8.34694602 8.35032837 8.35311101 8.35311101 8.35311101 8.35311101 8.35311101 8.35311101 8.35311101 8.35115509 8.34814368 8.34460103 8.34094165 8.33745436 8.33436698 8.33184103 8.32995987 8.32872761 8.32807960 8.32790295 8.32806102 8.32841567 8.32884368 8.32924615 8.32955169 8.32971521 8.32971521 8.32955169 8.32924615 8.32884368 8.32841567 8.32806102 8.32790295 8.32807960 8.32872761 8.32995987 8.33184103 8.33436698 8.33745436 8.34094165 8.34460103 8.34814368 8.35115509 8.35311101 8.35311101 8.35311101 8.35311101 8.35311101 8.35311101 8.35005320 8.34655555 8.34275321 8.33892856 8.33536201 8.33228789 8.32986787 8.32817571 8.32719680 8.32684224 8.32697334 8.32742965 8.32805372 8.32870850 8.32928632 8.32971077 8.32993426 8.32993426 8.32971077 8.32928632 8.32870850 8.32805372 8.32742965 8.32697334 8.32684224 8.32719680 8.32817571 8.32986787 8.33228789 8.33536201 8.33892856 8.34275321 8.34655555 8.35005320 8.35311101 8.35311101 8.35311101 8.35311101 8.35311101 8.35311101 8.34934755 8.34549001 8.34148155 8.33753806 8.33392537 8.33087666 8.32855084 8.32701286 8.32623323 8.32610449 8.32646871 8.32714811 8.32797158 8.32879267 8.32949806 8.33000849 8.33027515 8.33027515 8.33000849 8.32949806 8.32879267 8.32797158 8.32714811 8.32646871 8.32610449 8.32623323 8.32701286 8.32855084 8.33087666 8.33392537 8.33753806 8.34148155 8.34549001 8.34934755 8.35311101 8.35311101 8.35311101 8.35311101 8.35311101 8.35199862 8.34877719 8.34490905 8.34082551 8.33682746 8.33319536 8.33016509 8.32789418 8.32644249 8.32577233 8.32576618 8.32625582 8.32705436 8.32798365 8.32889250 8.32966489 8.33022029 8.33050949 8.33050949 8.33022029 8.32966489 8.32889250 8.32798365 8.32705436 8.32625582 8.32576618 8.32577233 8.32644249 8.32789418 8.33016509 8.33319536 8.33682746 8.34082551 8.34490905 8.34877719 8.35199862 8.35311101 8.35311101 8.35311101 8.35311101 8.35199862 8.34877719 8.34490905 8.34082551 8.33682746 8.33319536 8.33016509 8.32789418 8.32644249 8.32577233 8.32576618 8.32625582 8.32705436 8.32798365 8.32889250 8.32966489 8.33022029 8.33050949 8.33050949 8.33022029 8.32966489 8.32889250 8.32798365 8.32705436 8.32625582 8.32576618 8.32577233 8.32644249 8.32789418 8.33016509 8.33319536 8.33682746 8.34082551 8.34490905 8.34877719 8.35199862 8.35311101 8.35311101 8.35311101 8.35311101 8.35311101 8.34934755 8.34549001 8.34148155 8.33753806 8.33392537 8.33087666 8.32855084 8.32701286 8.32623323 8.32610449 8.32646871 8.32714811 8.32797158 8.32879267 8.32949806 8.33000849 8.33027515 8.33027515 8.33000849 8.32949806 8.32879267 8.32797158 8.32714811 8.32646871 8.32610449 8.32623323 8.32701286 8.32855084 8.33087666 8.33392537 8.33753806 8.34148155 8.34549001 8.34934755 8.35311101 8.35311101 8.35311101 8.35311101 8.35311101 8.35311101 8.35005320 8.34655555 8.34275321 8.33892856 8.33536201 8.33228789 8.32986787 8.32817571 8.32719680 8.32684224 8.32697334 8.32742965 8.32805372 8.32870850 8.32928632 8.32971077 8.32993426 8.32993426 8.32971077 8.32928632 8.32870850 8.32805372 8.32742965 8.32697334 8.32684224 8.32719680 8.32817571 8.32986787 8.33228789 8.33536201 8.33892856 8.34275321 8.34655555 8.35005320 8.35311101 8.35311101 8.35311101 8.35311101 8.35311101 8.35311101 8.35115509 8.34814368 8.34460103 8.34094165 8.33745436 8.33436698 8.33184103 8.32995987 8.32872761 8.32807960 8.32790295 8.32806102 8.32841567 8.32884368 8.32924615 8.32955169 8.32971521 8.32971521 8.32955169 8.32924615 8.32884368 8.32841567 8.32806102 8.32790295 8.32807960 8.32872761 8.32995987 8.33184103 8.33436698 8.33745436 8.34094165 8.34460103 8.34814368 8.35115509 8.35311101 8.35311101 8.35311101 8.35311101 8.35311101 8.35311101 8.35311101 8.35032837 8.34694602 8.34347853 8.34011386 8.33704897 8.33443938 8.33237549 8.33088107 8.32991805 8.32940262 8.32922619 8.32927413 8.32944063 8.32963860 8.32980416 8.32989669 8.32989669 8.32980416 8.32963860 8.32944063 8.32927413 8.32922619 8.32940262 8.32991805 8.33088107 8.33237549 8.33443938 8.33704897 8.34011386 8.34347853 8.34694602 8.35032837 8.35311101 8.35311101 8.35311101 8.35311101 8.35311101 8.35311101 8.35311101 8.35311101 8.35311101 8.34955922 8.34638099 8.34320767 8.34022409 8.33758735 8.33538796 8.33366916 8.33241829 8.33158035 8.33107666 8.33081848 8.33071941 8.33070626 8.33072530 8.33074281 8.33074281 8.33072530 8.33070626 8.33071941 8.33081848 8.33107666 8.33158035 8.33241829 8.33366916 8.33538796 8.33758735 8.34022409 8.34320767 8.34638099 8.34955922 8.35311101 8.35311101 8.35311101 8.35311101 8.35311101 8.35311101 8.35311101 8.35311101 8.35311101 8.35311101 8.35164433 8.34946739 8.34657049 8.34373152 8.34115550 8.33890028 8.33703488 8.33556678 8.33446523 8.33368275 8.33315690 8.33281973 8.33261189 8.33249232 8.33243776 8.33243776 8.33249232 8.33261189 8.33281973 8.33315690 8.33368275 8.33446523 8.33556678 8.33703488 8.33890028 8.34115550 8.34373152 8.34657049 8.34946739 8.35164433 8.35311101 8.35311101 8.35311101 8.35311101 8.35311101 8.35311101 8.35311101 8.35311101 8.35311101 8.35311101 8.35311101 8.35311101 8.35004156 8.34734549 8.34496977 8.34275001 8.34084441 8.33926106 8.33798401 8.33700347 8.33628166 8.33576207 8.33539450 8.33515439 8.33503527 8.33503527 8.33515439 8.33539450 8.33576207 8.33628166 8.33700347 8.33798401 8.33926106 8.34084441 8.34275001 8.34496977 8.34734549 8.35004156 8.35311101 8.35311101 8.35311101 8.35311101 8.35311101 8.35311101 8.35311101 8.35311101 8.35311101 8.35311101 8.35311101 8.35311101 8.35311101 8.35311101 8.35311101 8.35068071 8.34887803 8.34671772 8.34490170 8.34331766 8.34195834 8.34088128 8.34006379 8.33944048 8.33895487 8.33861107 8.33843412 8.33843412 8.33861107 8.33895487 8.33944048 8.34006379 8.34088128 8.34195834 8.34331766 8.34490170 8.34671772 8.34887803 8.35068071 8.35311101 8.35311101 8.35311101 8.35311101 8.35311101 8.35311101 8.35311101 8.35311101 8.35311101 8.35311101 8.35311101 8.35311101 8.35311101 8.35311101 8.35311101 8.35311101 8.35311101 8.35311101 8.35049026 8.34899740 8.34748650 8.34610889 8.34505958 8.34428180 8.34365585 8.34307112 8.34261594 8.34237934 8.34237934 8.34261594 8.34307112 8.34365585 8.34428180 8.34505958 8.34610889 8.34748650 8.34899740 8.35049026 8.35311101 8.35311101 8.35311101 8.35311101 8.35311101 8.35311101 8.35311101 8.35311101 8.35311101 8.35311101 8.35311101 8.35311101 8.35311101 8.35311101 8.35311101 8.35311101 8.35311101 8.35311101 8.35311101 8.35311101 8.35311101 8.35311101 8.35134516 8.35002377 8.34922230 8.34868767 8.34820505 8.34741776 8.34678177 8.34647607 8.34647607 8.34678177 8.34741776 8.34820505 8.34868767 8.34922230 8.35002377 8.35134516 8.35311101 8.35311101 8.35311101 8.35311101 8.35311101 8.35311101 8.35311101 8.35311101 8.35311101 8.35311101 8.35311101 8.35311101 8.35311101 8.35311101 8.35311101 8.35311101 8.35311101 8.35311101 8.35311101 8.35311101 8.35311101 8.35311101 8.35311101 8.35311101 8.35311101 8.35311101 8.35311101 8.35311101 8.35311101 8.35143710 8.35053806 8.35020996 8.35020996 8.35053806 8.35143710 8.35311101 8.35311101 8.35311101 8.35311101 8.35311101 8.35311101 8.35311101 8.35311101 8.35311101 8.35311101 8.35311101 8.35311101 8.35311101 8.35311101 8.35311101 8.35311101 8.35311101 8.35311101 8.35311101 8.35311101 8.35311101 8.35311101 8.35311101 8.35311101 8.35311101 8.35311101 8.35311101 8.35311101 8.35311101 8.35311101 8.35311101 8.35311101 8.35311101 8.35311101 8.35311101 8.35311101 8.35311101 8.35311101 8.35311101 8.35311101 8.35311101 8.35311101 8.35311101 8.35311101 8.35311101 8.35311101 8.35311101 8.35311101 8.35311101 8.35311101 8.35311101 8.35311101 8.35311101 8.35311101 8.35311101 8.35311101 8.35311101 8.35311101 8.35311101 8.35311101 8.35311101 8.35311101 8.35311101 8.35311101 8.35311101 8.35311101 8.35311101 8.35311101 8.35311101 8.35311101 8.35311101 8.35311101 8.35311101 8.35311101 8.35311101 8.35311101 8.35311101 8.35311101 8.35311101 8.35311101 8.35311101 8.35311101 8.35311101 8.35311101 8.35311101 8.35311101 8.35311101 8.35311101 8.35311101 8.35311101 8.35311101 8.35311101 8.35311101 8.35311101 8.35311101 8.35311101 8.35311101 8.35311101 8.35311101 8.35311101 8.35311101 8.35311101 8.35311101 8.35311101 8.35311101 8.35311101 8.35311101 8.35311101 8.35311101 8.35311101 8.35311101 8.35311101 8.35311101 8.35311101 8.35311101 8.35311101 8.35311101 8.35311101 8.35311101 8.35311101 8.35311101 8.35311101 8.35311101 8.35311101 8.35311101 8.35311101 8.35311101 8.35311101 8.35311101 8.35311101 8.35311101 8.35311101 8.35311101 8.35311101 8.35311101 8.35311101 8.35311101 8.35311101 8.35311101 8.35311101 8.35311101 8.35311101 8.35311101 8.35311101 8.35311101 8.35311101 8.35311101 8.35311101 8.35311101 8.35311101 8.35311101 8.35311101 8.35311101 8.35311101 8.35311101 8.35311101 8.35311101 8.35311101 8.35311101 8.35311101 8.35311101 8.35311101 8.35311101 8.35311101 8.35311101 8.35311101 8.35311101 8.35311101 8.35311101 8.35311101 8.35311101 8.35311101 8.35311101 8.35311101 8.35311101 8.35311101 8.35311101 8.35311101 8.35311101 8.35311101 8.35311101 8.35311101 8.35311101 8.35311101 8.35311101 8.35311101 8.35311101 8.35311101 8.35311101 8.35311101 8.35311101 8.35311101 8.35311101 8.35311101 8.35311101 8.35311101 8.35311101 8.35311101 8.35311101 8.35311101 8.35311101 8.35311101 8.35311101 8.35311101 8.35311101 8.35311101 8.35311101 8.35311101 8.35311101 8.35311101 8.35311101 8.35311101 8.35311101 8.35311101 8.35311101 8.35311101 8.35311101 8.35311101 8.35311101 8.35311101 8.35311101 8.35311101 8.35311101 8.35311101 8.35311101 8.35311101 8.35311101 8.35311101 8.35311101 8.35311101 8.35311101 8.35311101 8.35311101 8.35311101 8.35311101 8.35311101 8.35311101 8.35311101 8.35311101 8.35311101 8.35311101 8.35311101 8.35311101 8.35311101 8.35311101 8.35311101 8.35311101 8.35311101 8.35311101 8.35311101 8.35311101 8.35311101 8.35311101 8.35311101 8.35311101 8.35311101 8.35311101 8.35311101 8.35311101 8.35311101 8.35311101 8.35311101 8.35311101 8.35311101 8.35311101 8.35311101 8.35311101 8.35311101 8.35311101 8.35311101 8.35311101 8.35311101 8.35311101 8.35311101 8.35311101 8.35311101 8.35311101 8.35311101 8.35311101 8.35311101 8.35311101 8.35311101 8.35311101 8.35311101 8.35311101 8.35311101 8.35311101 8.35311101 8.35311101 8.35311101 8.35311101 8.35311101 8.35311101 8.35311101 8.35311101 8.35311101 8.35311101 8.35311101 8.35311101 8.35311101 8.35311101 8.35311101 8.35311101 8.35311101 8.35311101 8.35311101 8.35311101 8.35311101 8.35311101 8.35311101 8.35311101 8.35311101 8.35311101 8.35311101 8.35311101 8.35311101 8.35311101 8.35311101 8.35311101 8.35311101 8.35311101 8.35311101 8.35311101 8.35311101 8.35311101 8.35311101 8.35311101 8.35311101 8.35311101 8.35311101 8.35311101 8.35311101 8.35311101 8.35311101 8.35311101 8.35311101 8.35311101 