# vtk DataFile Version 3.0
VTK - Matlab export
ASCII
DATASET STRUCTURED_POINTS
DIMENSIONS 40 40 1
SPACING 1 1 1
ORIGIN 0 0 0
POINT_DATA 1600
SCALARS Temperature float 1
LOOKUP_TABLE default
200.00000000 200.00000000 200.00000000 200.00000000 200.00000000 200.00000000 200.00000000 200.00000000 200.00000000 200.00000000 200.00000000 200.00000000 200.00000000 200.00000000 200.00000000 200.00000000 200.00000000 200.00000000 200.00000000 200.00000000 200.00000000 200.00000000 200.00000000 200.00000000 200.00000000 200.00000000 200.00000000 200.00000000 200.00000000 200.00000000 200.00000000 200.00000000 200.00000000 200.00000000 200.00000000 200.00000000 200.00000000 200.00000000 200.00000000 200.00000000 200.00000000 200.00000000 200.00000000 200.00000000 200.00000000 200.00000000 200.00000000 200.00000000 200.00000000 200.00000000 200.00000000 200.00000000 200.00000000 200.00000000 200.00000000 200.00000000 200.00000000 200.00000000 200.00000000 200.00000000 200.00000000 200.00000000 200.00000000 200.00000000 200.00000000 200.00000000 200.00000000 200.00000000 200.00000000 200.00000000 200.00000000 200.00000000 200.00000000 200.00000000 200.00000000 200.00000000 200.00000000 200.00000000 200.00000000 200.00000000 200.00000000 200.00000000 200.00000000 200.00000000 200.00000000 200.00000000 200.00000000 200.00000000 200.00000000 200.00000000 200.00000000 200.00000000 200.00000000 200.00000000 200.00000000 200.00000000 200.00000000 200.00000000 200.00000000 200.00000000 200.00000000 200.00000000 200.00000000 200.00000000 200.00000000 200.00000000 200.00000000 200.00000000 200.00000000 200.00000000 200.00000000 200.00000000 200.00000000 200.00000000 200.00000000 200.00000000 200.00000000 200.00000000 200.00000000 200.00000000 200.00000000 200.00000000 200.00000000 200.00000000 200.00000000 200.00000000 200.00000000 200.00000000 200.00000000 200.00000000 200.00000000 200.00000000 200.00000000 200.00000000 200.00000000 200.00000000 200.00000000 200.00000000 200.00000000 200.00000000 200.00000000 200.00000000 200.00000000 200.00000000 200.00000000 200.00000000 200.00000000 200.00000000 200.00000000 200.00000000 200.00000000 200.00000000 200.00000000 200.00000000 200.00000000 200.00000000 200.00000000 200.00000000 200.00000000 200.00000000 200.00000000 200.00000000 200.00000000 200.00000000 200.00000000 200.00000000 200.00000000 200.00000000 200.00000000 200.00000000 200.00000000 200.00000000 200.00000000 200.00000000 200.00000000 200.00000000 200.00000000 200.00000000 200.00000000 200.00000000 200.00000000 200.00000000 200.00000000 200.00000000 200.00000000 200.00000000 200.00000000 200.00000000 200.00000000 200.00000000 200.00000000 200.00000000 200.00000000 200.00000000 200.00000000 200.00000000 200.00000000 200.00000000 200.00000000 200.00000000 200.00000000 200.00000000 200.00000000 200.00000000 200.00000000 200.00000000 200.00000000 200.00000000 200.00000000 200.00000000 200.00000000 200.00000000 200.00000000 200.00000000 200.00000000 200.00000000 200.00000000 200.00000000 200.00000000 200.00000000 200.00000000 200.00000000 200.00000000 200.00000000 200.00000000 200.00000000 200.00000000 200.00000000 200.00000000 200.00000000 200.00000000 200.00000000 200.00000000 200.00000000 200.00000000 200.00000000 200.00000000 200.00000000 200.00000000 200.00000000 200.00000000 200.00000000 200.00000000 200.00000000 200.00000000 200.00000000 200.00000000 200.00000000 200.00000000 200.00000000 200.00000000 200.00000000 200.00000000 200.00000000 200.00000000 200.00000000 200.00000000 200.00000000 200.00000000 200.00000000 200.00000000 200.00000000 200.00000000 200.00000000 200.00000000 200.00000000 200.00000000 200.00000000 200.00000000 200.00000000 200.00000000 200.00000000 200.00000000 200.00000000 200.00000000 200.00000000 200.00000000 200.00000000 200.00000000 200.00000000 200.00000000 200.00000000 200.00000000 200.00000000 200.00000000 200.00000000 200.00000000 200.00000000 200.00000000 200.00000000 200.00000000 200.00000000 200.00000000 200.00000000 200.00000000 200.00000000 200.00000000 200.00000000 200.00000000 200.00000000 200.00000000 200.00000000 200.00000000 200.00000000 200.00000000 200.00000000 200.00000000 200.00000000 200.00000000 200.00000000 200.00000000 200.00000000 200.00000000 200.00000000 200.00000000 200.00000000 200.00000000 200.00000000 200.00000000 200.00000000 200.00000000 200.00000000 200.00000000 200.00000000 200.00000000 200.00000000 200.00000000 200.00000000 200.00000000 200.00000000 200.00000000 200.00000000 200.00000000 200.00000000 200.00000000 200.00000000 200.00000000 246.72523000 272.55701562 282.21461074 282.21461074 272.55701562 246.72523000 200.00000000 200.00000000 200.00000000 200.00000000 200.00000000 200.00000000 200.00000000 200.00000000 200.00000000 200.00000000 200.00000000 200.00000000 200.00000000 200.00000000 200.00000000 200.00000000 200.00000000 200.00000000 200.00000000 200.00000000 200.00000000 200.00000000 200.00000000 200.00000000 200.00000000 200.00000000 200.00000000 200.00000000 200.00000000 248.14921491 284.53964059 306.35452142 320.55965200 333.51327515 355.65498674 374.06648619 383.08928433 383.08928433 374.06648619 355.65498674 333.51327515 320.55965200 306.35452142 284.53964059 248.14921491 200.00000000 200.00000000 200.00000000 200.00000000 200.00000000 200.00000000 200.00000000 200.00000000 200.00000000 200.00000000 200.00000000 200.00000000 200.00000000 200.00000000 200.00000000 200.00000000 200.00000000 200.00000000 200.00000000 200.00000000 200.00000000 200.00000000 270.25211871 310.11549173 350.36311201 386.82084832 413.86981813 433.27312201 448.86963020 464.17556834 476.60720136 483.22197207 483.22197207 476.60720136 464.17556834 448.86963020 433.27312201 413.86981813 386.82084832 350.36311201 310.11549173 270.25211871 200.00000000 200.00000000 200.00000000 200.00000000 200.00000000 200.00000000 200.00000000 200.00000000 200.00000000 200.00000000 200.00000000 200.00000000 200.00000000 200.00000000 200.00000000 200.00000000 200.00000000 200.00000000 264.22750569 311.25027281 367.30632202 413.06658816 451.88925817 484.41128986 509.30366591 527.53977919 541.34449462 552.52926344 560.85479736 565.28186717 565.28186717 560.85479736 552.52926344 541.34449462 527.53977919 509.30366591 484.41128986 451.88925817 413.06658816 367.30632202 311.25027281 264.22750569 200.00000000 200.00000000 200.00000000 200.00000000 200.00000000 200.00000000 200.00000000 200.00000000 200.00000000 200.00000000 200.00000000 200.00000000 200.00000000 200.00000000 200.00000000 280.23595586 349.37709872 407.81571831 460.25706383 503.00530731 536.82964895 563.08237446 582.56318874 596.56105127 606.68959741 614.19065645 619.40362839 622.11121016 622.11121016 619.40362839 614.19065645 606.68959741 596.56105127 582.56318874 563.08237446 536.82964895 503.00530731 460.25706383 407.81571831 349.37709872 280.23595586 200.00000000 200.00000000 200.00000000 200.00000000 200.00000000 200.00000000 200.00000000 200.00000000 200.00000000 200.00000000 200.00000000 200.00000000 239.07111010 295.46673208 368.04971430 435.24518110 491.85339578 537.80237236 573.07602790 599.18356487 618.07355777 631.38872013 640.59175422 646.96634945 651.42214626 654.36693688 655.85778251 655.85778251 654.36693688 651.42214626 646.96634945 640.59175422 631.38872013 618.07355777 599.18356487 573.07602790 537.80237236 491.85339578 435.24518110 368.04971430 295.46673208 239.07111010 200.00000000 200.00000000 200.00000000 200.00000000 200.00000000 200.00000000 200.00000000 200.00000000 200.00000000 200.00000000 294.06485718 373.79982356 447.18716840 509.51734791 558.70061799 595.46466638 621.65425880 639.67595154 651.82042200 659.88030816 665.18441373 668.69491338 671.03606895 672.52242035 673.25743135 673.25743135 672.52242035 671.03606895 668.69491338 665.18441373 659.88030816 651.82042200 639.67595154 621.65425880 595.46466638 558.70061799 509.51734791 447.18716840 373.79982356 294.06485718 200.00000000 200.00000000 200.00000000 200.00000000 200.00000000 200.00000000 200.00000000 200.00000000 200.00000000 275.24466305 362.16566889 443.36933420 512.76544668 567.19248085 606.81281397 634.00063198 651.81934018 663.13669388 670.20569932 674.59296104 677.32196915 679.04213751 680.13994477 680.81255944 681.13803126 681.13803126 680.81255944 680.13994477 679.04213751 677.32196915 674.59296104 670.20569932 663.13669388 651.81934018 634.00063198 606.81281397 567.19248085 512.76544668 443.36933420 362.16566889 275.24466305 200.00000000 200.00000000 200.00000000 200.00000000 200.00000000 200.00000000 200.00000000 254.35807310 334.52567720 421.15930623 499.54336897 562.33514971 607.86521845 638.28352700 657.34997335 668.75910973 675.39074654 679.19943565 681.39151923 682.67019512 683.43392949 683.89994465 684.17581736 684.30653608 684.30653608 684.17581736 683.89994465 683.43392949 682.67019512 681.39151923 679.19943565 675.39074654 668.75910973 657.34997335 638.28352700 607.86521845 562.33514971 499.54336897 421.15930623 334.52567720 254.35807310 200.00000000 200.00000000 200.00000000 200.00000000 200.00000000 200.00000000 284.96810330 376.59550162 465.17901124 540.15495537 596.26227758 633.94269371 657.05729669 670.26453884 677.43714773 681.21702428 683.19081828 684.23179359 684.79495509 685.11112574 685.29483909 685.39980652 685.44850409 685.44850409 685.39980652 685.29483909 685.11112574 684.79495509 684.23179359 683.19081828 681.21702428 677.43714773 670.26453884 657.05729669 633.94269371 596.26227758 540.15495537 465.17901124 376.59550162 284.96810330 200.00000000 200.00000000 200.00000000 200.00000000 200.00000000 200.00000000 304.30526627 403.92674414 493.78650419 565.80141599 616.73844803 648.82686880 667.11379592 676.72107687 681.47222324 683.73538542 684.80030155 685.30820282 685.55939544 685.69037483 685.76234679 685.80195640 685.81995551 685.81995551 685.80195640 685.76234679 685.69037483 685.55939544 685.30820282 684.80030155 683.73538542 681.47222324 676.72107687 667.11379592 648.82686880 616.73844803 565.80141599 493.78650419 403.92674414 304.30526627 200.00000000 200.00000000 200.00000000 200.00000000 200.00000000 231.32759735 320.16506641 418.65800035 507.99635677 578.09848322 626.22602936 655.45495041 671.39134485 679.32899171 683.01227296 684.64095302 685.34586907 685.65374491 685.79363830 685.86144225 685.89672300 685.91550432 685.92390589 685.92390589 685.91550432 685.89672300 685.86144225 685.79363830 685.65374491 685.34586907 684.64095302 683.01227296 679.32899171 671.39134485 655.45495041 626.22602936 578.09848322 507.99635677 418.65800035 320.16506641 231.32759735 200.00000000 200.00000000 200.00000000 200.00000000 231.32759735 320.16506641 418.65800035 507.99635677 578.09848322 626.22602936 655.45495041 671.39134485 679.32899171 683.01227296 684.64095302 685.34586907 685.65374491 685.79363830 685.86144225 685.89672300 685.91550432 685.92390589 685.92390589 685.91550432 685.89672300 685.86144225 685.79363830 685.65374491 685.34586907 684.64095302 683.01227296 679.32899171 671.39134485 655.45495041 626.22602936 578.09848322 507.99635677 418.65800035 320.16506641 231.32759735 200.00000000 200.00000000 200.00000000 200.00000000 200.00000000 304.30526627 403.92674414 493.78650419 565.80141599 616.73844803 648.82686880 667.11379592 676.72107687 681.47222324 683.73538542 684.80030155 685.30820282 685.55939544 685.69037483 685.76234679 685.80195640 685.81995551 685.81995551 685.80195640 685.76234679 685.69037483 685.55939544 685.30820282 684.80030155 683.73538542 681.47222324 676.72107687 667.11379592 648.82686880 616.73844803 565.80141599 493.78650419 403.92674414 304.30526627 200.00000000 200.00000000 200.00000000 200.00000000 200.00000000 200.00000000 284.96810330 376.59550162 465.17901124 540.15495537 596.26227758 633.94269371 657.05729669 670.26453884 677.43714773 681.21702428 683.19081828 684.23179359 684.79495509 685.11112574 685.29483909 685.39980652 685.44850409 685.44850409 685.39980652 685.29483909 685.11112574 684.79495509 684.23179359 683.19081828 681.21702428 677.43714773 670.26453884 657.05729669 633.94269371 596.26227758 540.15495537 465.17901124 376.59550162 284.96810330 200.00000000 200.00000000 200.00000000 200.00000000 200.00000000 200.00000000 254.35807310 334.52567720 421.15930623 499.54336897 562.33514971 607.86521845 638.28352700 657.34997335 668.75910973 675.39074654 679.19943565 681.39151923 682.67019512 683.43392949 683.89994465 684.17581736 684.30653608 684.30653608 684.17581736 683.89994465 683.43392949 682.67019512 681.39151923 679.19943565 675.39074654 668.75910973 657.34997335 638.28352700 607.86521845 562.33514971 499.54336897 421.15930623 334.52567720 254.35807310 200.00000000 200.00000000 200.00000000 200.00000000 200.00000000 200.00000000 200.00000000 275.24466305 362.16566889 443.36933420 512.76544668 567.19248085 606.81281397 634.00063198 651.81934018 663.13669388 670.20569932 674.59296104 677.32196915 679.04213751 680.13994477 680.81255944 681.13803126 681.13803126 680.81255944 680.13994477 679.04213751 677.32196915 674.59296104 670.20569932 663.13669388 651.81934018 634.00063198 606.81281397 567.19248085 512.76544668 443.36933420 362.16566889 275.24466305 200.00000000 200.00000000 200.00000000 200.00000000 200.00000000 200.00000000 200.00000000 200.00000000 200.00000000 294.06485718 373.79982356 447.18716840 509.51734791 558.70061799 595.46466638 621.65425880 639.67595154 651.82042200 659.88030816 665.18441373 668.69491338 671.03606895 672.52242035 673.25743135 673.25743135 672.52242035 671.03606895 668.69491338 665.18441373 659.88030816 651.82042200 639.67595154 621.65425880 595.46466638 558.70061799 509.51734791 447.18716840 373.79982356 294.06485718 200.00000000 200.00000000 200.00000000 200.00000000 200.00000000 200.00000000 200.00000000 200.00000000 200.00000000 200.00000000 239.07111010 295.46673208 368.04971430 435.24518110 491.85339578 537.80237236 573.07602790 599.18356487 618.07355777 631.38872013 640.59175422 646.96634945 651.42214626 654.36693688 655.85778251 655.85778251 654.36693688 651.42214626 646.96634945 640.59175422 631.38872013 618.07355777 599.18356487 573.07602790 537.80237236 491.85339578 435.24518110 368.04971430 295.46673208 239.07111010 200.00000000 200.00000000 200.00000000 200.00000000 200.00000000 200.00000000 200.00000000 200.00000000 200.00000000 200.00000000 200.00000000 200.00000000 280.23595586 349.37709872 407.81571831 460.25706383 503.00530731 536.82964895 563.08237446 582.56318874 596.56105127 606.68959741 614.19065645 619.40362839 622.11121016 622.11121016 619.40362839 614.19065645 606.68959741 596.56105127 582.56318874 563.08237446 536.82964895 503.00530731 460.25706383 407.81571831 349.37709872 280.23595586 200.00000000 200.00000000 200.00000000 200.00000000 200.00000000 200.00000000 200.00000000 200.00000000 200.00000000 200.00000000 200.00000000 200.00000000 200.00000000 200.00000000 200.00000000 264.22750569 311.25027281 367.30632202 413.06658816 451.88925817 484.41128986 509.30366591 527.53977919 541.34449462 552.52926344 560.85479736 565.28186717 565.28186717 560.85479736 552.52926344 541.34449462 527.53977919 509.30366591 484.41128986 451.88925817 413.06658816 367.30632202 311.25027281 264.22750569 200.00000000 200.00000000 200.00000000 200.00000000 200.00000000 200.00000000 200.00000000 200.00000000 200.00000000 200.00000000 200.00000000 200.00000000 200.00000000 200.00000000 200.00000000 200.00000000 200.00000000 200.00000000 270.25211871 310.11549173 350.36311201 386.82084832 413.86981813 433.27312201 448.86963020 464.17556834 476.60720136 483.22197207 483.22197207 476.60720136 464.17556834 448.86963020 433.27312201 413.86981813 386.82084832 350.36311201 310.11549173 270.25211871 200.00000000 200.00000000 200.00000000 200.00000000 200.00000000 200.00000000 200.00000000 200.00000000 200.00000000 200.00000000 200.00000000 200.00000000 200.00000000 200.00000000 200.00000000 200.00000000 200.00000000 200.00000000 200.00000000 200.00000000 200.00000000 200.00000000 248.14921491 284.53964059 306.35452142 320.55965200 333.51327515 355.65498674 374.06648619 383.08928433 383.08928433 374.06648619 355.65498674 333.51327515 320.55965200 306.35452142 284.53964059 248.14921491 200.00000000 200.00000000 200.00000000 200.00000000 200.00000000 200.00000000 200.00000000 200.00000000 200.00000000 200.00000000 200.00000000 200.00000000 200.00000000 200.00000000 200.00000000 200.00000000 200.00000000 200.00000000 200.00000000 200.00000000 200.00000000 200.00000000 200.00000000 200.00000000 200.00000000 200.00000000 200.00000000 200.00000000 200.00000000 246.72523000 272.55701562 282.21461074 282.21461074 272.55701562 246.72523000 200.00000000 200.00000000 200.00000000 200.00000000 200.00000000 200.00000000 200.00000000 200.00000000 200.00000000 200.00000000 200.00000000 200.00000000 200.00000000 200.00000000 200.00000000 200.00000000 200.00000000 200.00000000 200.00000000 200.00000000 200.00000000 200.00000000 200.00000000 200.00000000 200.00000000 200.00000000 200.00000000 200.00000000 200.00000000 200.00000000 200.00000000 200.00000000 200.00000000 200.00000000 200.00000000 200.00000000 200.00000000 200.00000000 200.00000000 200.00000000 200.00000000 200.00000000 200.00000000 200.00000000 200.00000000 200.00000000 200.00000000 200.00000000 200.00000000 200.00000000 200.00000000 200.00000000 200.00000000 200.00000000 200.00000000 200.00000000 200.00000000 200.00000000 200.00000000 200.00000000 200.00000000 200.00000000 200.00000000 200.00000000 200.00000000 200.00000000 200.00000000 200.00000000 200.00000000 200.00000000 200.00000000 200.00000000 200.00000000 200.00000000 200.00000000 200.00000000 200.00000000 200.00000000 200.00000000 200.00000000 200.00000000 200.00000000 200.00000000 200.00000000 200.00000000 200.00000000 200.00000000 200.00000000 200.00000000 200.00000000 200.00000000 200.00000000 200.00000000 200.00000000 200.00000000 200.00000000 200.00000000 200.00000000 200.00000000 200.00000000 200.00000000 200.00000000 200.00000000 200.00000000 200.00000000 200.00000000 200.00000000 200.00000000 200.00000000 200.00000000 200.00000000 200.00000000 200.00000000 200.00000000 200.00000000 200.00000000 200.00000000 200.00000000 200.00000000 200.00000000 200.00000000 200.00000000 200.00000000 200.00000000 200.00000000 200.00000000 200.00000000 200.00000000 200.00000000 200.00000000 200.00000000 200.00000000 200.00000000 200.00000000 200.00000000 200.00000000 200.00000000 200.00000000 200.00000000 200.00000000 200.00000000 200.00000000 200.00000000 200.00000000 200.00000000 200.00000000 200.00000000 200.00000000 200.00000000 200.00000000 200.00000000 200.00000000 200.00000000 200.00000000 200.00000000 200.00000000 200.00000000 200.00000000 200.00000000 200.00000000 200.00000000 200.00000000 200.00000000 200.00000000 200.00000000 200.00000000 200.00000000 200.00000000 200.00000000 200.00000000 200.00000000 200.00000000 200.00000000 200.00000000 200.00000000 200.00000000 200.00000000 200.00000000 200.00000000 200.00000000 200.00000000 200.00000000 200.00000000 200.00000000 200.00000000 200.00000000 200.00000000 200.00000000 200.00000000 200.00000000 200.00000000 200.00000000 200.00000000 200.00000000 200.00000000 200.00000000 200.00000000 200.00000000 200.00000000 200.00000000 200.00000000 200.00000000 200.00000000 200.00000000 200.00000000 200.00000000 200.00000000 200.00000000 200.00000000 200.00000000 200.00000000 200.00000000 200.00000000 200.00000000 200.00000000 200.00000000 200.00000000 200.00000000 200.00000000 200.00000000 200.00000000 200.00000000 200.00000000 200.00000000 200.00000000 200.00000000 200.00000000 200.00000000 200.00000000 200.00000000 200.00000000 200.00000000 200.00000000 200.00000000 200.00000000 200.00000000 200.00000000 200.00000000 200.00000000 200.00000000 200.00000000 200.00000000 200.00000000 200.00000000 200.00000000 200.00000000 200.00000000 200.00000000 200.00000000 200.00000000 200.00000000 200.00000000 200.00000000 200.00000000 200.00000000 200.00000000 200.00000000 200.00000000 200.00000000 200.00000000 200.00000000 200.00000000 200.00000000 200.00000000 200.00000000 200.00000000 200.00000000 200.00000000 200.00000000 200.00000000 200.00000000 200.00000000 200.00000000 200.00000000 200.00000000 200.00000000 200.00000000 200.00000000 200.00000000 200.00000000 200.00000000 200.00000000 200.00000000 200.00000000 200.00000000 200.00000000 200.00000000 200.00000000 200.00000000 200.00000000 200.00000000 200.00000000 200.00000000 200.00000000 200.00000000 200.00000000 200.00000000 200.00000000 200.00000000 200.00000000 200.00000000 200.00000000 200.00000000 200.00000000 200.00000000 200.00000000 200.00000000 200.00000000 200.00000000 200.00000000 200.00000000 200.00000000 200.00000000 200.00000000 200.00000000 200.00000000 200.00000000 200.00000000 200.00000000 200.00000000 200.00000000 200.00000000 200.00000000 200.00000000 200.00000000 200.00000000 200.00000000 200.00000000 200.00000000 200.00000000 200.00000000 200.00000000 200.00000000 200.00000000 200.00000000 200.00000000 200.00000000 