# vtk DataFile Version 3.0
VTK - Matlab export
ASCII
DATASET STRUCTURED_POINTS
DIMENSIONS 40 40 1
SPACING 1 1 1
ORIGIN 0 0 0
POINT_DATA 1600
SCALARS Proofstrength float 1
LOOKUP_TABLE default
140.71398941 140.71398941 140.71398941 140.71398941 140.71398941 140.71398941 140.71398941 140.71398941 140.71398941 140.71398941 140.71398941 140.71398941 140.71398941 140.71398941 140.71398941 140.71398941 140.71398941 140.71398941 140.71398941 140.71398941 140.71398941 140.71398941 140.71398941 140.71398941 140.71398941 140.71398941 140.71398941 140.71398941 140.71398941 140.71398941 140.71398941 140.71398941 140.71398941 140.71398941 140.71398941 140.71398941 140.71398941 140.71398941 140.71398941 140.71398941 140.71398941 140.71398941 140.71398941 140.71398941 140.71398941 140.71398941 140.71398941 140.71398941 140.71398941 140.71398941 140.71398941 140.71398941 140.71398941 140.71398941 140.71398941 140.71398941 140.71398941 140.71398941 140.71398941 140.71398941 140.71398941 140.71398941 140.71398941 140.71398941 140.71398941 140.71398941 140.71398941 140.71398941 140.71398941 140.71398941 140.71398941 140.71398941 140.71398941 140.71398941 140.71398941 140.71398941 140.71398941 140.71398941 140.71398941 140.71398941 140.71398941 140.71398941 140.71398941 140.71398941 140.71398941 140.71398941 140.71398941 140.71398941 140.71398941 140.71398941 140.71398941 140.71398941 140.71398941 140.71398941 140.71398941 140.71398941 140.71398941 140.71398941 140.71398941 140.71398941 140.71398941 140.71398941 140.71398941 140.71398941 140.71398941 140.71398941 140.71398941 140.71398941 140.71398941 140.71398941 140.71398941 140.71398941 140.71398941 140.71398941 140.71398941 140.71398941 140.71398941 140.71398941 140.71398941 140.71398941 140.71398941 140.71398941 140.71398941 140.71398941 140.71398941 140.71398941 140.71398941 140.71398941 140.71398941 140.71398941 140.71398941 140.71398941 140.71398941 140.71398941 140.71398941 140.71398941 140.71398941 140.71398941 140.71398941 140.71398941 140.71398941 140.71398941 140.71398941 140.71398941 140.71398941 140.71398941 140.71398941 140.71398941 140.71398941 140.71398941 140.71398941 140.71398941 140.71398941 140.71398941 140.71398941 140.71398941 140.71398941 140.71398941 140.71398941 140.71398941 140.71398941 140.71398941 140.71398941 140.71398941 140.71398941 140.71398941 140.71398941 140.71398941 140.71398941 140.71398941 140.71398941 140.71398941 140.71398941 140.71398941 140.71398941 140.71398941 140.71398941 140.71398941 140.71398941 140.71398941 140.71398941 140.71398941 140.71398941 140.71398941 140.71398941 140.71398941 140.71398941 140.71398941 140.71398941 140.71398941 140.71398941 140.71398941 140.71398941 140.71398941 140.71398941 140.71398941 140.71398941 140.71398941 140.71398941 140.71398941 140.71398941 140.71398941 140.71398941 140.71398941 140.71398941 140.71398941 140.71398941 140.71398941 140.71398941 140.71398941 140.71398941 140.71398941 140.71398941 140.71398941 140.71398941 140.71398941 140.71398941 140.71398941 140.71398941 140.71398941 140.71398941 140.71398941 140.71398941 140.71398941 140.71398941 140.71398941 140.71398941 140.71398941 140.71398941 140.71398941 140.71398941 140.71398941 140.71398941 140.71398941 140.71398941 140.71398941 140.71398941 140.71398941 140.71398941 140.71398941 140.71398941 140.71398941 140.71398941 140.71398941 140.71398941 140.71398941 140.71398941 140.71398941 140.71398941 140.71398941 140.71398941 140.71398941 140.71398941 140.71398941 140.71398941 140.71398941 140.71398941 140.71398941 140.71398941 140.71398941 140.71398941 140.71398941 140.71398941 140.71398941 140.71398941 140.71398941 140.71398941 140.71398941 140.71398941 140.71398941 140.71398941 140.71398941 140.71398941 140.71398941 140.71398941 140.71398941 140.71398941 140.71398941 140.71398941 140.71398941 140.71398941 140.71398941 140.71398941 140.71398941 140.71398941 140.71398941 140.71398941 140.71398941 140.71398941 140.71398941 140.71398941 140.71398941 140.71398941 140.71398941 140.71398941 140.71398941 140.71398941 140.71398941 140.71398941 140.71398941 140.71398941 140.71398941 140.71398941 140.71398941 140.71398941 140.71398941 140.71398941 140.71398941 140.71398941 140.71398941 140.71398941 140.71398941 140.71398941 140.71398941 140.71398941 140.71398941 140.71398941 140.71398941 140.71398941 140.71398941 140.71398941 140.71398941 140.71398941 140.71398941 140.71398941 140.71398941 140.71398941 140.71398941 140.71398941 140.71398941 140.71398941 140.71398941 140.71398941 140.71398941 140.71398941 140.71398941 140.71398941 140.71820992 140.72052624 140.72138456 140.72138456 140.72052624 140.71820992 140.71398941 140.71398941 140.71398941 140.71398941 140.71398941 140.71398941 140.71398941 140.71398941 140.71398941 140.71398941 140.71398941 140.71398941 140.71398941 140.71398941 140.71398941 140.71398941 140.71398941 140.71398941 140.71398941 140.71398941 140.71398941 140.71398941 140.71398941 140.71398941 140.71398941 140.71398941 140.71398941 140.71398941 140.71398941 140.71844645 140.72177085 140.72373239 140.72498627 140.72611719 140.72807309 140.72969014 140.73047527 140.73047527 140.72969014 140.72807309 140.72611719 140.72498627 140.72373239 140.72177085 140.71844645 140.71398941 140.71398941 140.71398941 140.71398941 140.71398941 140.71398941 140.71398941 140.71398941 140.71398941 140.71398941 140.71398941 140.71398941 140.71398941 140.71398941 140.71398941 140.71398941 140.71398941 140.71398941 140.71398941 140.71398941 140.71398941 140.71398941 140.72061923 140.72430698 140.72796817 140.73123202 140.73360260 140.73525891 140.73656173 140.73784043 140.73887610 140.73942288 140.73942288 140.73887610 140.73784043 140.73656173 140.73525891 140.73360260 140.73123202 140.72796817 140.72430698 140.72061923 140.71398941 140.71398941 140.71398941 140.71398941 140.71398941 140.71398941 140.71398941 140.71398941 140.71398941 140.71398941 140.71398941 140.71398941 140.71398941 140.71398941 140.71398941 140.71398941 140.71398941 140.71398941 140.72020804 140.72466983 140.72989296 140.73405549 140.73748399 140.74025690 140.74227984 140.74367224 140.74466506 140.74544950 140.74603031 140.74633735 140.74633735 140.74603031 140.74544950 140.74466506 140.74367224 140.74227984 140.74025690 140.73748399 140.73405549 140.72989296 140.72466983 140.72020804 140.71398941 140.71398941 140.71398941 140.71398941 140.71398941 140.71398941 140.71398941 140.71398941 140.71398941 140.71398941 140.71398941 140.71398941 140.71398941 140.71398941 140.71398941 140.72190148 140.72859107 140.73411279 140.73891204 140.74263972 140.74538061 140.74729409 140.74850695 140.74919871 140.74957546 140.74980079 140.74994597 140.75002016 140.75002016 140.74994597 140.74980079 140.74957546 140.74919871 140.74850695 140.74729409 140.74538061 140.74263972 140.73891204 140.73411279 140.72859107 140.72190148 140.71398941 140.71398941 140.71398941 140.71398941 140.71398941 140.71398941 140.71398941 140.71398941 140.71398941 140.71398941 140.71398941 140.71398941 140.71793196 140.72357762 140.73074848 140.73725250 140.74252476 140.74651102 140.74920029 140.75077160 140.75148649 140.75160239 140.75136233 140.75097802 140.75060454 140.75032856 140.75018531 140.75018531 140.75032856 140.75060454 140.75097802 140.75136233 140.75160239 140.75148649 140.75077160 140.74920029 140.74651102 140.74252476 140.73725250 140.73074848 140.72357762 140.71793196 140.71398941 140.71398941 140.71398941 140.71398941 140.71398941 140.71398941 140.71398941 140.71398941 140.71398941 140.71398941 140.72356097 140.73163047 140.73896165 140.74497548 140.74933624 140.75203467 140.75326300 140.75335657 140.75269470 140.75162186 140.75041731 140.74928734 140.74836665 140.74772859 140.74740462 140.74740462 140.74772859 140.74836665 140.74928734 140.75041731 140.75162186 140.75269470 140.75335657 140.75326300 140.75203467 140.74933624 140.74497548 140.73896165 140.73163047 140.72356097 140.71398941 140.71398941 140.71398941 140.71398941 140.71398941 140.71398941 140.71398941 140.71398941 140.71398941 140.72171827 140.73065323 140.73900953 140.74602849 140.75115845 140.75420282 140.75531757 140.75489643 140.75343924 140.75143136 140.74926768 140.74722922 140.74549274 140.74415397 140.74325389 140.74280363 140.74280363 140.74325389 140.74415397 140.74549274 140.74722922 140.74926768 140.75143136 140.75343924 140.75489643 140.75531757 140.75420282 140.75115845 140.74602849 140.73900953 140.73065323 140.72171827 140.71398941 140.71398941 140.71398941 140.71398941 140.71398941 140.71398941 140.71398941 140.71958595 140.72788538 140.73695024 140.74519525 140.75159522 140.75560820 140.75718084 140.75666580 140.75465390 140.75179165 140.74864186 140.74561499 140.74296422 140.74081713 140.73921811 140.73816684 140.73764746 140.73764746 140.73816684 140.73921811 140.74081713 140.74296422 140.74561499 140.74864186 140.75179165 140.75465390 140.75666580 140.75718084 140.75560820 140.75159522 140.74519525 140.73695024 140.72788538 140.71958595 140.71398941 140.71398941 140.71398941 140.71398941 140.71398941 140.71398941 140.72277284 140.73235465 140.74179960 140.74985626 140.75555931 140.75845915 140.75866283 140.75671373 140.75337353 140.74940189 140.74540684 140.74178863 140.73875680 140.73638332 140.73466059 140.73354820 140.73300444 140.73300444 140.73354820 140.73466059 140.73638332 140.73875680 140.74178863 140.74540684 140.74940189 140.75337353 140.75671373 140.75866283 140.75845915 140.75555931 140.74985626 140.74179960 140.73235465 140.72277284 140.71398941 140.71398941 140.71398941 140.71398941 140.71398941 140.71398941 140.72481717 140.73532512 140.74505292 140.75291633 140.75803024 140.76004472 140.75920504 140.75620460 140.75192939 140.74721286 140.74268310 140.73871985 140.73549065 140.73302042 140.73126024 140.73013895 140.72959536 140.72959536 140.73013895 140.73126024 140.73302042 140.73549065 140.73871985 140.74268310 140.74721286 140.75192939 140.75620460 140.75920504 140.76004472 140.75803024 140.75291633 140.74505292 140.73532512 140.72481717 140.71398941 140.71398941 140.71398941 140.71398941 140.71398941 140.71723805 140.72648753 140.73694320 140.74670392 140.75442432 140.75919875 140.76072451 140.75932356 140.75577095 140.75101754 140.74593231 140.74114940 140.73703350 140.73372684 140.73122771 140.72946458 140.72834979 140.72781187 140.72781187 140.72834979 140.72946458 140.73122771 140.73372684 140.73703350 140.74114940 140.74593231 140.75101754 140.75577095 140.75932356 140.76072451 140.75919875 140.75442432 140.74670392 140.73694320 140.72648753 140.71723805 140.71398941 140.71398941 140.71398941 140.71398941 140.71723805 140.72648753 140.73694320 140.74670392 140.75442432 140.75919875 140.76072451 140.75932356 140.75577095 140.75101754 140.74593231 140.74114940 140.73703350 140.73372684 140.73122771 140.72946458 140.72834979 140.72781187 140.72781187 140.72834979 140.72946458 140.73122771 140.73372684 140.73703350 140.74114940 140.74593231 140.75101754 140.75577095 140.75932356 140.76072451 140.75919875 140.75442432 140.74670392 140.73694320 140.72648753 140.71723805 140.71398941 140.71398941 140.71398941 140.71398941 140.71398941 140.72481717 140.73532512 140.74505292 140.75291633 140.75803024 140.76004472 140.75920504 140.75620460 140.75192939 140.74721286 140.74268310 140.73871985 140.73549065 140.73302042 140.73126024 140.73013895 140.72959536 140.72959536 140.73013895 140.73126024 140.73302042 140.73549065 140.73871985 140.74268310 140.74721286 140.75192939 140.75620460 140.75920504 140.76004472 140.75803024 140.75291633 140.74505292 140.73532512 140.72481717 140.71398941 140.71398941 140.71398941 140.71398941 140.71398941 140.71398941 140.72277284 140.73235465 140.74179960 140.74985626 140.75555931 140.75845915 140.75866283 140.75671373 140.75337353 140.74940189 140.74540684 140.74178863 140.73875680 140.73638332 140.73466059 140.73354820 140.73300444 140.73300444 140.73354820 140.73466059 140.73638332 140.73875680 140.74178863 140.74540684 140.74940189 140.75337353 140.75671373 140.75866283 140.75845915 140.75555931 140.74985626 140.74179960 140.73235465 140.72277284 140.71398941 140.71398941 140.71398941 140.71398941 140.71398941 140.71398941 140.71958595 140.72788538 140.73695024 140.74519525 140.75159522 140.75560820 140.75718084 140.75666580 140.75465390 140.75179165 140.74864186 140.74561499 140.74296422 140.74081713 140.73921811 140.73816684 140.73764746 140.73764746 140.73816684 140.73921811 140.74081713 140.74296422 140.74561499 140.74864186 140.75179165 140.75465390 140.75666580 140.75718084 140.75560820 140.75159522 140.74519525 140.73695024 140.72788538 140.71958595 140.71398941 140.71398941 140.71398941 140.71398941 140.71398941 140.71398941 140.71398941 140.72171827 140.73065323 140.73900953 140.74602849 140.75115845 140.75420282 140.75531757 140.75489643 140.75343924 140.75143136 140.74926768 140.74722922 140.74549274 140.74415397 140.74325389 140.74280363 140.74280363 140.74325389 140.74415397 140.74549274 140.74722922 140.74926768 140.75143136 140.75343924 140.75489643 140.75531757 140.75420282 140.75115845 140.74602849 140.73900953 140.73065323 140.72171827 140.71398941 140.71398941 140.71398941 140.71398941 140.71398941 140.71398941 140.71398941 140.71398941 140.71398941 140.72356097 140.73163047 140.73896165 140.74497548 140.74933624 140.75203467 140.75326300 140.75335657 140.75269470 140.75162186 140.75041731 140.74928734 140.74836665 140.74772859 140.74740462 140.74740462 140.74772859 140.74836665 140.74928734 140.75041731 140.75162186 140.75269470 140.75335657 140.75326300 140.75203467 140.74933624 140.74497548 140.73896165 140.73163047 140.72356097 140.71398941 140.71398941 140.71398941 140.71398941 140.71398941 140.71398941 140.71398941 140.71398941 140.71398941 140.71398941 140.71793196 140.72357762 140.73074848 140.73725250 140.74252476 140.74651102 140.74920029 140.75077160 140.75148649 140.75160239 140.75136233 140.75097802 140.75060454 140.75032856 140.75018531 140.75018531 140.75032856 140.75060454 140.75097802 140.75136233 140.75160239 140.75148649 140.75077160 140.74920029 140.74651102 140.74252476 140.73725250 140.73074848 140.72357762 140.71793196 140.71398941 140.71398941 140.71398941 140.71398941 140.71398941 140.71398941 140.71398941 140.71398941 140.71398941 140.71398941 140.71398941 140.71398941 140.72190148 140.72859107 140.73411279 140.73891204 140.74263972 140.74538061 140.74729409 140.74850695 140.74919871 140.74957546 140.74980079 140.74994597 140.75002016 140.75002016 140.74994597 140.74980079 140.74957546 140.74919871 140.74850695 140.74729409 140.74538061 140.74263972 140.73891204 140.73411279 140.72859107 140.72190148 140.71398941 140.71398941 140.71398941 140.71398941 140.71398941 140.71398941 140.71398941 140.71398941 140.71398941 140.71398941 140.71398941 140.71398941 140.71398941 140.71398941 140.71398941 140.72020804 140.72466983 140.72989296 140.73405549 140.73748399 140.74025690 140.74227984 140.74367224 140.74466506 140.74544950 140.74603031 140.74633735 140.74633735 140.74603031 140.74544950 140.74466506 140.74367224 140.74227984 140.74025690 140.73748399 140.73405549 140.72989296 140.72466983 140.72020804 140.71398941 140.71398941 140.71398941 140.71398941 140.71398941 140.71398941 140.71398941 140.71398941 140.71398941 140.71398941 140.71398941 140.71398941 140.71398941 140.71398941 140.71398941 140.71398941 140.71398941 140.71398941 140.72061923 140.72430698 140.72796817 140.73123202 140.73360260 140.73525891 140.73656173 140.73784043 140.73887610 140.73942288 140.73942288 140.73887610 140.73784043 140.73656173 140.73525891 140.73360260 140.73123202 140.72796817 140.72430698 140.72061923 140.71398941 140.71398941 140.71398941 140.71398941 140.71398941 140.71398941 140.71398941 140.71398941 140.71398941 140.71398941 140.71398941 140.71398941 140.71398941 140.71398941 140.71398941 140.71398941 140.71398941 140.71398941 140.71398941 140.71398941 140.71398941 140.71398941 140.71844645 140.72177085 140.72373239 140.72498627 140.72611719 140.72807309 140.72969014 140.73047527 140.73047527 140.72969014 140.72807309 140.72611719 140.72498627 140.72373239 140.72177085 140.71844645 140.71398941 140.71398941 140.71398941 140.71398941 140.71398941 140.71398941 140.71398941 140.71398941 140.71398941 140.71398941 140.71398941 140.71398941 140.71398941 140.71398941 140.71398941 140.71398941 140.71398941 140.71398941 140.71398941 140.71398941 140.71398941 140.71398941 140.71398941 140.71398941 140.71398941 140.71398941 140.71398941 140.71398941 140.71398941 140.71820992 140.72052624 140.72138456 140.72138456 140.72052624 140.71820992 140.71398941 140.71398941 140.71398941 140.71398941 140.71398941 140.71398941 140.71398941 140.71398941 140.71398941 140.71398941 140.71398941 140.71398941 140.71398941 140.71398941 140.71398941 140.71398941 140.71398941 140.71398941 140.71398941 140.71398941 140.71398941 140.71398941 140.71398941 140.71398941 140.71398941 140.71398941 140.71398941 140.71398941 140.71398941 140.71398941 140.71398941 140.71398941 140.71398941 140.71398941 140.71398941 140.71398941 140.71398941 140.71398941 140.71398941 140.71398941 140.71398941 140.71398941 140.71398941 140.71398941 140.71398941 140.71398941 140.71398941 140.71398941 140.71398941 140.71398941 140.71398941 140.71398941 140.71398941 140.71398941 140.71398941 140.71398941 140.71398941 140.71398941 140.71398941 140.71398941 140.71398941 140.71398941 140.71398941 140.71398941 140.71398941 140.71398941 140.71398941 140.71398941 140.71398941 140.71398941 140.71398941 140.71398941 140.71398941 140.71398941 140.71398941 140.71398941 140.71398941 140.71398941 140.71398941 140.71398941 140.71398941 140.71398941 140.71398941 140.71398941 140.71398941 140.71398941 140.71398941 140.71398941 140.71398941 140.71398941 140.71398941 140.71398941 140.71398941 140.71398941 140.71398941 140.71398941 140.71398941 140.71398941 140.71398941 140.71398941 140.71398941 140.71398941 140.71398941 140.71398941 140.71398941 140.71398941 140.71398941 140.71398941 140.71398941 140.71398941 140.71398941 140.71398941 140.71398941 140.71398941 140.71398941 140.71398941 140.71398941 140.71398941 140.71398941 140.71398941 140.71398941 140.71398941 140.71398941 140.71398941 140.71398941 140.71398941 140.71398941 140.71398941 140.71398941 140.71398941 140.71398941 140.71398941 140.71398941 140.71398941 140.71398941 140.71398941 140.71398941 140.71398941 140.71398941 140.71398941 140.71398941 140.71398941 140.71398941 140.71398941 140.71398941 140.71398941 140.71398941 140.71398941 140.71398941 140.71398941 140.71398941 140.71398941 140.71398941 140.71398941 140.71398941 140.71398941 140.71398941 140.71398941 140.71398941 140.71398941 140.71398941 140.71398941 140.71398941 140.71398941 140.71398941 140.71398941 140.71398941 140.71398941 140.71398941 140.71398941 140.71398941 140.71398941 140.71398941 140.71398941 140.71398941 140.71398941 140.71398941 140.71398941 140.71398941 140.71398941 140.71398941 140.71398941 140.71398941 140.71398941 140.71398941 140.71398941 140.71398941 140.71398941 140.71398941 140.71398941 140.71398941 140.71398941 140.71398941 140.71398941 140.71398941 140.71398941 140.71398941 140.71398941 140.71398941 140.71398941 140.71398941 140.71398941 140.71398941 140.71398941 140.71398941 140.71398941 140.71398941 140.71398941 140.71398941 140.71398941 140.71398941 140.71398941 140.71398941 140.71398941 140.71398941 140.71398941 140.71398941 140.71398941 140.71398941 140.71398941 140.71398941 140.71398941 140.71398941 140.71398941 140.71398941 140.71398941 140.71398941 140.71398941 140.71398941 140.71398941 140.71398941 140.71398941 140.71398941 140.71398941 140.71398941 140.71398941 140.71398941 140.71398941 140.71398941 140.71398941 140.71398941 140.71398941 140.71398941 140.71398941 140.71398941 140.71398941 140.71398941 140.71398941 140.71398941 140.71398941 140.71398941 140.71398941 140.71398941 140.71398941 140.71398941 140.71398941 140.71398941 140.71398941 140.71398941 140.71398941 140.71398941 140.71398941 140.71398941 140.71398941 140.71398941 140.71398941 140.71398941 140.71398941 140.71398941 140.71398941 140.71398941 140.71398941 140.71398941 140.71398941 140.71398941 140.71398941 140.71398941 140.71398941 140.71398941 140.71398941 140.71398941 140.71398941 140.71398941 140.71398941 140.71398941 140.71398941 140.71398941 140.71398941 140.71398941 140.71398941 140.71398941 140.71398941 140.71398941 140.71398941 140.71398941 140.71398941 140.71398941 140.71398941 140.71398941 140.71398941 140.71398941 140.71398941 140.71398941 140.71398941 140.71398941 140.71398941 140.71398941 140.71398941 140.71398941 140.71398941 140.71398941 140.71398941 140.71398941 140.71398941 140.71398941 140.71398941 140.71398941 140.71398941 140.71398941 140.71398941 140.71398941 140.71398941 140.71398941 140.71398941 140.71398941 140.71398941 140.71398941 140.71398941 140.71398941 140.71398941 140.71398941 140.71398941 140.71398941 140.71398941 140.71398941 140.71398941 140.71398941 