# vtk DataFile Version 3.0
VTK - Matlab export
ASCII
DATASET STRUCTURED_POINTS
DIMENSIONS 40 40 1
SPACING 1 1 1
ORIGIN 0 0 0
POINT_DATA 1600
SCALARS lambda-2 float 1
LOOKUP_TABLE default
8.35311101 8.35311101 8.35311101 8.35311101 8.35311101 8.35311101 8.35311101 8.35311101 8.35311101 8.35311101 8.35311101 8.35311101 8.35311101 8.35311101 8.35311101 8.35311101 8.35311101 8.35311101 8.35311101 8.35311101 8.35311101 8.35311101 8.35311101 8.35311101 8.35311101 8.35311101 8.35311101 8.35311101 8.35311101 8.35311101 8.35311101 8.35311101 8.35311101 8.35311101 8.35311101 8.35311101 8.35311101 8.35311101 8.35311101 8.35311101 8.35311101 8.35311101 8.35311101 8.35311101 8.35311101 8.35311101 8.35311101 8.35311101 8.35311101 8.35311101 8.35311101 8.35311101 8.35311101 8.35311101 8.35311101 8.35311101 8.35311101 8.35311101 8.35311101 8.35311101 8.35311101 8.35311101 8.35311101 8.35311101 8.35311101 8.35311101 8.35311101 8.35311101 8.35311101 8.35311101 8.35311101 8.35311101 8.35311101 8.35311101 8.35311101 8.35311101 8.35311101 8.35311101 8.35311101 8.35311101 8.35311101 8.35311101 8.35311101 8.35311101 8.35311101 8.35311101 8.35311101 8.35311101 8.35311101 8.35311101 8.35311101 8.35311101 8.35311101 8.35311101 8.35311101 8.35311101 8.35311101 8.35311101 8.35311101 8.35311101 8.35311101 8.35311101 8.35311101 8.35311101 8.35311101 8.35311101 8.35311101 8.35311101 8.35311101 8.35311101 8.35311101 8.35311101 8.35311101 8.35311101 8.35311101 8.35311101 8.35311101 8.35311101 8.35311101 8.35311101 8.35311101 8.35311101 8.35311101 8.35311101 8.35311101 8.35311101 8.35311101 8.35311101 8.35311101 8.35311101 8.35311101 8.35311101 8.35311101 8.35311101 8.35311101 8.35311101 8.35311101 8.35311101 8.35311101 8.35311101 8.35311101 8.35311101 8.35311101 8.35311101 8.35311101 8.35311101 8.35311101 8.35311101 8.35311101 8.35311101 8.35311101 8.35311101 8.35311101 8.35311101 8.35311101 8.35311101 8.35311101 8.35311101 8.35311101 8.35311101 8.35311101 8.35311101 8.35311101 8.35311101 8.35311101 8.35311101 8.35311101 8.35311101 8.35311101 8.35311101 8.35311101 8.35311101 8.35311101 8.35311101 8.35311101 8.35311101 8.35311101 8.35311101 8.35311101 8.35311101 8.35311101 8.35311101 8.35311101 8.35311101 8.35311101 8.35311101 8.35311101 8.35311101 8.35311101 8.35311101 8.35311101 8.35311101 8.35311101 8.35311101 8.35311101 8.35311101 8.35311101 8.35311101 8.35311101 8.35311101 8.35311101 8.35311101 8.35311101 8.35311101 8.35311101 8.35311101 8.35311101 8.35311101 8.35311101 8.35311101 8.35311101 8.35311101 8.35311101 8.35311101 8.35311101 8.35311101 8.35311101 8.35311101 8.35311101 8.35311101 8.35311101 8.35311101 8.35311101 8.35311101 8.35311101 8.35311101 8.35311101 8.35311101 8.35311101 8.35311101 8.35311101 8.35311101 8.35311101 8.35311101 8.35311101 8.35311101 8.35311101 8.35311101 8.35311101 8.35311101 8.35311101 8.35311101 8.35311101 8.35311101 8.35311101 8.35311101 8.35311101 8.35311101 8.35311101 8.35311101 8.35311101 8.35311101 8.35311101 8.35311101 8.35311101 8.35311101 8.35311101 8.35311101 8.35311101 8.35311101 8.35311101 8.35311101 8.35311101 8.35311101 8.35311101 8.35311101 8.35311101 8.35311101 8.35311101 8.35311101 8.35311101 8.35311101 8.35311101 8.35311101 8.35311101 8.35311101 8.35311101 8.35311101 8.35311101 8.35311101 8.35311101 8.35311101 8.35311101 8.35311101 8.35311101 8.35311101 8.35311101 8.35311101 8.35311101 8.35311101 8.35311101 8.35311101 8.35311101 8.35311101 8.35311101 8.35311101 8.35311101 8.35311101 8.35311101 8.35311101 8.35311101 8.35311101 8.35311101 8.35311101 8.35311101 8.35311101 8.35311101 8.35311101 8.35311101 8.35311101 8.35311101 8.35311101 8.35311101 8.35311101 8.35311101 8.35311101 8.35311101 8.35311101 8.35311101 8.35311101 8.35311101 8.35311101 8.35311101 8.35311101 8.35311101 8.35311101 8.35311101 8.35311101 8.35311101 8.35311101 8.35311101 8.35311101 8.35311101 8.35311101 8.35311101 8.35311101 8.35311101 8.34940731 8.34737019 8.34661399 8.34661399 8.34737019 8.34940731 8.35311101 8.35311101 8.35311101 8.35311101 8.35311101 8.35311101 8.35311101 8.35311101 8.35311101 8.35311101 8.35311101 8.35311101 8.35311101 8.35311101 8.35311101 8.35311101 8.35311101 8.35311101 8.35311101 8.35311101 8.35311101 8.35311101 8.35311101 8.35311101 8.35311101 8.35311101 8.35311101 8.35311101 8.35311101 8.34920003 8.34628526 8.34457206 8.34348350 8.34250206 8.34079200 8.33937420 8.33868490 8.33868490 8.33937420 8.34079200 8.34250206 8.34348350 8.34457206 8.34628526 8.34920003 8.35311101 8.35311101 8.35311101 8.35311101 8.35311101 8.35311101 8.35311101 8.35311101 8.35311101 8.35311101 8.35311101 8.35311101 8.35311101 8.35311101 8.35311101 8.35311101 8.35311101 8.35311101 8.35311101 8.35311101 8.35311101 8.35311101 8.34729761 8.34407322 8.34088016 8.33804298 8.33599627 8.33457891 8.33346820 8.33237021 8.33147581 8.33100250 8.33100250 8.33147581 8.33237021 8.33346820 8.33457891 8.33599627 8.33804298 8.34088016 8.34407322 8.34729761 8.35311101 8.35311101 8.35311101 8.35311101 8.35311101 8.35311101 8.35311101 8.35311101 8.35311101 8.35311101 8.35311101 8.35311101 8.35311101 8.35311101 8.35311101 8.35311101 8.35311101 8.35311101 8.34765928 8.34376195 8.33921193 8.33560967 8.33266483 8.33030297 8.32860161 8.32744980 8.32663860 8.32599567 8.32551539 8.32526014 8.32526014 8.32551539 8.32599567 8.32663860 8.32744980 8.32860161 8.33030297 8.33266483 8.33560967 8.33921193 8.34376195 8.34765928 8.35311101 8.35311101 8.35311101 8.35311101 8.35311101 8.35311101 8.35311101 8.35311101 8.35311101 8.35311101 8.35311101 8.35311101 8.35311101 8.35311101 8.35311101 8.34617856 8.34034408 8.33556571 8.33144901 8.32829289 8.32601245 8.32445752 8.32350875 8.32300251 8.32275358 8.32261618 8.32252776 8.32248157 8.32248157 8.32252776 8.32261618 8.32275358 8.32300251 8.32350875 8.32445752 8.32601245 8.32829289 8.33144901 8.33556571 8.34034408 8.34617856 8.35311101 8.35311101 8.35311101 8.35311101 8.35311101 8.35311101 8.35311101 8.35311101 8.35311101 8.35311101 8.35311101 8.35311101 8.34964412 8.34470177 8.33846106 8.33285608 8.32837830 8.32505993 8.32289145 8.32169791 8.32123691 8.32127557 8.32159832 8.32201999 8.32240681 8.32268582 8.32282905 8.32282905 8.32268582 8.32240681 8.32201999 8.32159832 8.32127557 8.32123691 8.32169791 8.32289145 8.32505993 8.32837830 8.33285608 8.33846106 8.34470177 8.34964412 8.35311101 8.35311101 8.35311101 8.35311101 8.35311101 8.35311101 8.35311101 8.35311101 8.35311101 8.35311101 8.34470101 8.33766914 8.33136102 8.32628250 8.32270676 8.32060977 8.31979127 8.31993409 8.32069430 8.32176891 8.32291865 8.32397093 8.32481596 8.32539640 8.32568966 8.32568966 8.32539640 8.32481596 8.32397093 8.32291865 8.32176891 8.32069430 8.31993409 8.31979127 8.32060977 8.32270676 8.32628250 8.33136102 8.33766914 8.34470101 8.35311101 8.35311101 8.35311101 8.35311101 8.35311101 8.35311101 8.35311101 8.35311101 8.35311101 8.34630024 8.33848379 8.33126837 8.32533260 8.32114190 8.31882597 8.31819707 8.31886772 8.32037604 8.32229251 8.32428114 8.32611246 8.32764896 8.32882130 8.32960405 8.32999406 8.32999406 8.32960405 8.32882130 8.32764896 8.32611246 8.32428114 8.32229251 8.32037604 8.31886772 8.31819707 8.31882597 8.32114190 8.32533260 8.33126837 8.33848379 8.34630024 8.35311101 8.35311101 8.35311101 8.35311101 8.35311101 8.35311101 8.35311101 8.34816313 8.34086757 8.33298635 8.32595211 8.32066679 8.31756664 8.31663230 8.31748599 8.31956096 8.32227163 8.32513279 8.32780905 8.33010774 8.33194316 8.33329591 8.33417899 8.33461347 8.33461347 8.33417899 8.33329591 8.33194316 8.33010774 8.32780905 8.32513279 8.32227163 8.31956096 8.31748599 8.31663230 8.31756664 8.32066679 8.32595211 8.33298635 8.34086757 8.34816313 8.35311101 8.35311101 8.35311101 8.35311101 8.35311101 8.35311101 8.34534664 8.33694095 8.32877731 8.32199026 8.31741468 8.31538406 8.31571656 8.31785327 8.32107567 8.32470757 8.32823824 8.33135558 8.33391618 8.33588979 8.33730560 8.33821240 8.33865354 8.33865354 8.33821240 8.33730560 8.33588979 8.33391618 8.33135558 8.32823824 8.32470757 8.32107567 8.31785327 8.31571656 8.31538406 8.31741468 8.32199026 8.32877731 8.33694095 8.34534664 8.35311101 8.35311101 8.35311101 8.35311101 8.35311101 8.35311101 8.34354212 8.33433930 8.32597027 8.31941769 8.31543301 8.31424434 8.31553203 8.31859654 8.32261128 8.32684427 8.33077951 8.33413420 8.33680973 8.33882127 8.34023555 8.34112799 8.34155821 8.34155821 8.34112799 8.34023555 8.33882127 8.33680973 8.33413420 8.33077951 8.32684427 8.32261128 8.31859654 8.31553203 8.31424434 8.31543301 8.31941769 8.32597027 8.33433930 8.34354212 8.35311101 8.35311101 8.35311101 8.35311101 8.35311101 8.35023328 8.34206616 8.33292378 8.32455133 8.31816022 8.31451292 8.31378614 8.31558415 8.31913144 8.32354594 8.32807010 8.33218973 8.33564142 8.33835282 8.34036438 8.34176303 8.34263818 8.34305784 8.34305784 8.34263818 8.34176303 8.34036438 8.33835282 8.33564142 8.33218973 8.32807010 8.32354594 8.31913144 8.31558415 8.31378614 8.31451292 8.31816022 8.32455133 8.33292378 8.34206616 8.35023328 8.35311101 8.35311101 8.35311101 8.35311101 8.35023328 8.34206616 8.33292378 8.32455133 8.31816022 8.31451292 8.31378614 8.31558415 8.31913144 8.32354594 8.32807010 8.33218973 8.33564142 8.33835282 8.34036438 8.34176303 8.34263818 8.34305784 8.34305784 8.34263818 8.34176303 8.34036438 8.33835282 8.33564142 8.33218973 8.32807010 8.32354594 8.31913144 8.31558415 8.31378614 8.31451292 8.31816022 8.32455133 8.33292378 8.34206616 8.35023328 8.35311101 8.35311101 8.35311101 8.35311101 8.35311101 8.34354212 8.33433930 8.32597027 8.31941769 8.31543301 8.31424434 8.31553203 8.31859654 8.32261128 8.32684427 8.33077951 8.33413420 8.33680973 8.33882127 8.34023555 8.34112799 8.34155821 8.34155821 8.34112799 8.34023555 8.33882127 8.33680973 8.33413420 8.33077951 8.32684427 8.32261128 8.31859654 8.31553203 8.31424434 8.31543301 8.31941769 8.32597027 8.33433930 8.34354212 8.35311101 8.35311101 8.35311101 8.35311101 8.35311101 8.35311101 8.34534664 8.33694095 8.32877731 8.32199026 8.31741468 8.31538406 8.31571656 8.31785327 8.32107567 8.32470757 8.32823824 8.33135558 8.33391618 8.33588979 8.33730560 8.33821240 8.33865354 8.33865354 8.33821240 8.33730560 8.33588979 8.33391618 8.33135558 8.32823824 8.32470757 8.32107567 8.31785327 8.31571656 8.31538406 8.31741468 8.32199026 8.32877731 8.33694095 8.34534664 8.35311101 8.35311101 8.35311101 8.35311101 8.35311101 8.35311101 8.34816313 8.34086757 8.33298635 8.32595211 8.32066679 8.31756664 8.31663230 8.31748599 8.31956096 8.32227163 8.32513279 8.32780905 8.33010774 8.33194316 8.33329591 8.33417899 8.33461347 8.33461347 8.33417899 8.33329591 8.33194316 8.33010774 8.32780905 8.32513279 8.32227163 8.31956096 8.31748599 8.31663230 8.31756664 8.32066679 8.32595211 8.33298635 8.34086757 8.34816313 8.35311101 8.35311101 8.35311101 8.35311101 8.35311101 8.35311101 8.35311101 8.34630024 8.33848379 8.33126837 8.32533260 8.32114190 8.31882597 8.31819707 8.31886772 8.32037604 8.32229251 8.32428114 8.32611246 8.32764896 8.32882130 8.32960405 8.32999406 8.32999406 8.32960405 8.32882130 8.32764896 8.32611246 8.32428114 8.32229251 8.32037604 8.31886772 8.31819707 8.31882597 8.32114190 8.32533260 8.33126837 8.33848379 8.34630024 8.35311101 8.35311101 8.35311101 8.35311101 8.35311101 8.35311101 8.35311101 8.35311101 8.35311101 8.34470101 8.33766914 8.33136102 8.32628250 8.32270676 8.32060977 8.31979127 8.31993409 8.32069430 8.32176891 8.32291865 8.32397093 8.32481596 8.32539640 8.32568966 8.32568966 8.32539640 8.32481596 8.32397093 8.32291865 8.32176891 8.32069430 8.31993409 8.31979127 8.32060977 8.32270676 8.32628250 8.33136102 8.33766914 8.34470101 8.35311101 8.35311101 8.35311101 8.35311101 8.35311101 8.35311101 8.35311101 8.35311101 8.35311101 8.35311101 8.34964412 8.34470177 8.33846106 8.33285608 8.32837830 8.32505993 8.32289145 8.32169791 8.32123691 8.32127557 8.32159832 8.32201999 8.32240681 8.32268582 8.32282905 8.32282905 8.32268582 8.32240681 8.32201999 8.32159832 8.32127557 8.32123691 8.32169791 8.32289145 8.32505993 8.32837830 8.33285608 8.33846106 8.34470177 8.34964412 8.35311101 8.35311101 8.35311101 8.35311101 8.35311101 8.35311101 8.35311101 8.35311101 8.35311101 8.35311101 8.35311101 8.35311101 8.34617856 8.34034408 8.33556571 8.33144901 8.32829289 8.32601245 8.32445752 8.32350875 8.32300251 8.32275358 8.32261618 8.32252776 8.32248157 8.32248157 8.32252776 8.32261618 8.32275358 8.32300251 8.32350875 8.32445752 8.32601245 8.32829289 8.33144901 8.33556571 8.34034408 8.34617856 8.35311101 8.35311101 8.35311101 8.35311101 8.35311101 8.35311101 8.35311101 8.35311101 8.35311101 8.35311101 8.35311101 8.35311101 8.35311101 8.35311101 8.35311101 8.34765928 8.34376195 8.33921193 8.33560967 8.33266483 8.33030297 8.32860161 8.32744980 8.32663860 8.32599567 8.32551539 8.32526014 8.32526014 8.32551539 8.32599567 8.32663860 8.32744980 8.32860161 8.33030297 8.33266483 8.33560967 8.33921193 8.34376195 8.34765928 8.35311101 8.35311101 8.35311101 8.35311101 8.35311101 8.35311101 8.35311101 8.35311101 8.35311101 8.35311101 8.35311101 8.35311101 8.35311101 8.35311101 8.35311101 8.35311101 8.35311101 8.35311101 8.34729761 8.34407322 8.34088016 8.33804298 8.33599627 8.33457891 8.33346820 8.33237021 8.33147581 8.33100250 8.33100250 8.33147581 8.33237021 8.33346820 8.33457891 8.33599627 8.33804298 8.34088016 8.34407322 8.34729761 8.35311101 8.35311101 8.35311101 8.35311101 8.35311101 8.35311101 8.35311101 8.35311101 8.35311101 8.35311101 8.35311101 8.35311101 8.35311101 8.35311101 8.35311101 8.35311101 8.35311101 8.35311101 8.35311101 8.35311101 8.35311101 8.35311101 8.34920003 8.34628526 8.34457206 8.34348350 8.34250206 8.34079200 8.33937420 8.33868490 8.33868490 8.33937420 8.34079200 8.34250206 8.34348350 8.34457206 8.34628526 8.34920003 8.35311101 8.35311101 8.35311101 8.35311101 8.35311101 8.35311101 8.35311101 8.35311101 8.35311101 8.35311101 8.35311101 8.35311101 8.35311101 8.35311101 8.35311101 8.35311101 8.35311101 8.35311101 8.35311101 8.35311101 8.35311101 8.35311101 8.35311101 8.35311101 8.35311101 8.35311101 8.35311101 8.35311101 8.35311101 8.34940731 8.34737019 8.34661399 8.34661399 8.34737019 8.34940731 8.35311101 8.35311101 8.35311101 8.35311101 8.35311101 8.35311101 8.35311101 8.35311101 8.35311101 8.35311101 8.35311101 8.35311101 8.35311101 8.35311101 8.35311101 8.35311101 8.35311101 8.35311101 8.35311101 8.35311101 8.35311101 8.35311101 8.35311101 8.35311101 8.35311101 8.35311101 8.35311101 8.35311101 8.35311101 8.35311101 8.35311101 8.35311101 8.35311101 8.35311101 8.35311101 8.35311101 8.35311101 8.35311101 8.35311101 8.35311101 8.35311101 8.35311101 8.35311101 8.35311101 8.35311101 8.35311101 8.35311101 8.35311101 8.35311101 8.35311101 8.35311101 8.35311101 8.35311101 8.35311101 8.35311101 8.35311101 8.35311101 8.35311101 8.35311101 8.35311101 8.35311101 8.35311101 8.35311101 8.35311101 8.35311101 8.35311101 8.35311101 8.35311101 8.35311101 8.35311101 8.35311101 8.35311101 8.35311101 8.35311101 8.35311101 8.35311101 8.35311101 8.35311101 8.35311101 8.35311101 8.35311101 8.35311101 8.35311101 8.35311101 8.35311101 8.35311101 8.35311101 8.35311101 8.35311101 8.35311101 8.35311101 8.35311101 8.35311101 8.35311101 8.35311101 8.35311101 8.35311101 8.35311101 8.35311101 8.35311101 8.35311101 8.35311101 8.35311101 8.35311101 8.35311101 8.35311101 8.35311101 8.35311101 8.35311101 8.35311101 8.35311101 8.35311101 8.35311101 8.35311101 8.35311101 8.35311101 8.35311101 8.35311101 8.35311101 8.35311101 8.35311101 8.35311101 8.35311101 8.35311101 8.35311101 8.35311101 8.35311101 8.35311101 8.35311101 8.35311101 8.35311101 8.35311101 8.35311101 8.35311101 8.35311101 8.35311101 8.35311101 8.35311101 8.35311101 8.35311101 8.35311101 8.35311101 8.35311101 8.35311101 8.35311101 8.35311101 8.35311101 8.35311101 8.35311101 8.35311101 8.35311101 8.35311101 8.35311101 8.35311101 8.35311101 8.35311101 8.35311101 8.35311101 8.35311101 8.35311101 8.35311101 8.35311101 8.35311101 8.35311101 8.35311101 8.35311101 8.35311101 8.35311101 8.35311101 8.35311101 8.35311101 8.35311101 8.35311101 8.35311101 8.35311101 8.35311101 8.35311101 8.35311101 8.35311101 8.35311101 8.35311101 8.35311101 8.35311101 8.35311101 8.35311101 8.35311101 8.35311101 8.35311101 8.35311101 8.35311101 8.35311101 8.35311101 8.35311101 8.35311101 8.35311101 8.35311101 8.35311101 8.35311101 8.35311101 8.35311101 8.35311101 8.35311101 8.35311101 8.35311101 8.35311101 8.35311101 8.35311101 8.35311101 8.35311101 8.35311101 8.35311101 8.35311101 8.35311101 8.35311101 8.35311101 8.35311101 8.35311101 8.35311101 8.35311101 8.35311101 8.35311101 8.35311101 8.35311101 8.35311101 8.35311101 8.35311101 8.35311101 8.35311101 8.35311101 8.35311101 8.35311101 8.35311101 8.35311101 8.35311101 8.35311101 8.35311101 8.35311101 8.35311101 8.35311101 8.35311101 8.35311101 8.35311101 8.35311101 8.35311101 8.35311101 8.35311101 8.35311101 8.35311101 8.35311101 8.35311101 8.35311101 8.35311101 8.35311101 8.35311101 8.35311101 8.35311101 8.35311101 8.35311101 8.35311101 8.35311101 8.35311101 8.35311101 8.35311101 8.35311101 8.35311101 8.35311101 8.35311101 8.35311101 8.35311101 8.35311101 8.35311101 8.35311101 8.35311101 8.35311101 8.35311101 8.35311101 8.35311101 8.35311101 8.35311101 8.35311101 8.35311101 8.35311101 8.35311101 8.35311101 8.35311101 8.35311101 8.35311101 8.35311101 8.35311101 8.35311101 8.35311101 8.35311101 8.35311101 8.35311101 8.35311101 8.35311101 8.35311101 8.35311101 8.35311101 8.35311101 8.35311101 8.35311101 8.35311101 8.35311101 8.35311101 8.35311101 8.35311101 8.35311101 8.35311101 8.35311101 8.35311101 8.35311101 8.35311101 8.35311101 8.35311101 8.35311101 8.35311101 8.35311101 8.35311101 8.35311101 8.35311101 8.35311101 8.35311101 8.35311101 8.35311101 8.35311101 8.35311101 8.35311101 8.35311101 8.35311101 8.35311101 8.35311101 8.35311101 8.35311101 8.35311101 8.35311101 8.35311101 