# vtk DataFile Version 3.0
VTK - Matlab export
ASCII
DATASET STRUCTURED_POINTS
DIMENSIONS 40 40 1
SPACING 1 1 1
ORIGIN 0 0 0
POINT_DATA 1600
SCALARS Proofstrength float 1
LOOKUP_TABLE default
140.71398941 140.71398941 140.71398941 140.71398941 140.71398941 140.71398941 140.71398941 140.71398941 140.71398941 140.71398941 140.71398941 140.71398941 140.71398941 140.71398941 140.71398941 140.71398941 140.71398941 140.71398941 140.71398941 140.71398941 140.71398941 140.71398941 140.71398941 140.71398941 140.71398941 140.71398941 140.71398941 140.71398941 140.71398941 140.71398941 140.71398941 140.71398941 140.71398941 140.71398941 140.71398941 140.71398941 140.71398941 140.71398941 140.71398941 140.71398941 140.71398941 140.71398941 140.71398941 140.71398941 140.71398941 140.71398941 140.71398941 140.71398941 140.71398941 140.71398941 140.71398941 140.71398941 140.71398941 140.71398941 140.71398941 140.71398941 140.71398941 140.71398941 140.71398941 140.71398941 140.71398941 140.71398941 140.71398941 140.71398941 140.71398941 140.71398941 140.71398941 140.71398941 140.71398941 140.71398941 140.71398941 140.71398941 140.71398941 140.71398941 140.71398941 140.71398941 140.71398941 140.71398941 140.71398941 140.71398941 140.71398941 140.71398941 140.71398941 140.71398941 140.71398941 140.71398941 140.71398941 140.71398941 140.71398941 140.71398941 140.71398941 140.71398941 140.71398941 140.71398941 140.71398941 140.71398941 140.71398941 140.71398941 140.71398941 140.71398941 140.71398941 140.71398941 140.71398941 140.71398941 140.71398941 140.71398941 140.71398941 140.71398941 140.71398941 140.71398941 140.71398941 140.71398941 140.71398941 140.71398941 140.71398941 140.71398941 140.71398941 140.71398941 140.71398941 140.71398941 140.71398941 140.71398941 140.71398941 140.71398941 140.71398941 140.71398941 140.71398941 140.71398941 140.71398941 140.71398941 140.71398941 140.71398941 140.71398941 140.71398941 140.71398941 140.71398941 140.71398941 140.71398941 140.71398941 140.71398941 140.71398941 140.71398941 140.71398941 140.71398941 140.71398941 140.71398941 140.71398941 140.71398941 140.71398941 140.71398941 140.71398941 140.71398941 140.71398941 140.71398941 140.71398941 140.71398941 140.71398941 140.71398941 140.71398941 140.71398941 140.71398941 140.71398941 140.71398941 140.71398941 140.71398941 140.71398941 140.71398941 140.71398941 140.71398941 140.71398941 140.71398941 140.71398941 140.71398941 140.71398941 140.71398941 140.71398941 140.71398941 140.71398941 140.71398941 140.71398941 140.71398941 140.71398941 140.71398941 140.71398941 140.71398941 140.71398941 140.71398941 140.71398941 140.71398941 140.71398941 140.71398941 140.71398941 140.71398941 140.71398941 140.71398941 140.71398941 140.71398941 140.71398941 140.71398941 140.71398941 140.71398941 140.71398941 140.71398941 140.71398941 140.71398941 140.71398941 140.71398941 140.71398941 140.71398941 140.71398941 140.71398941 140.71398941 140.71398941 140.71398941 140.71398941 140.71398941 140.71398941 140.71398941 140.71398941 140.71398941 140.71398941 140.71398941 140.71398941 140.71398941 140.71398941 140.71398941 140.71398941 140.71398941 140.71398941 140.71398941 140.71398941 140.71398941 140.71398941 140.71398941 140.71398941 140.71398941 140.71398941 140.71398941 140.71398941 140.71398941 140.71398941 140.71398941 140.71398941 140.71398941 140.71398941 140.71398941 140.71398941 140.71398941 140.71398941 140.71398941 140.71398941 140.71398941 140.71398941 140.71398941 140.71398941 140.71398941 140.71398941 140.71398941 140.71398941 140.71398941 140.71398941 140.71398941 140.71398941 140.71398941 140.71398941 140.71398941 140.71398941 140.71398941 140.71398941 140.71398941 140.71398941 140.71398941 140.71398941 140.71398941 140.71398941 140.71398941 140.71398941 140.71398941 140.71398941 140.71398941 140.71398941 140.71398941 140.71398941 140.71398941 140.71398941 140.71398941 140.71398941 140.71398941 140.71398941 140.71398941 140.71398941 140.71398941 140.71398941 140.71398941 140.71398941 140.71398941 140.71398941 140.71398941 140.71398941 140.71398941 140.71398941 140.71398941 140.71398941 140.71398941 140.71398941 140.71398941 140.71398941 140.71398941 140.71398941 140.71398941 140.71398941 140.71398941 140.71398941 140.71398941 140.71398941 140.71398941 140.71398941 140.71398941 140.71398941 140.71398941 140.71398941 140.71398941 140.71398941 140.71398941 140.71398941 140.71398941 140.71398941 140.71398941 140.71398941 140.71398941 140.71398941 140.71398941 140.71398941 140.71398941 140.71398941 140.71398941 140.71398941 140.73537981 140.74878869 140.75433815 140.75433815 140.74878869 140.73537981 140.71398941 140.71398941 140.71398941 140.71398941 140.71398941 140.71398941 140.71398941 140.71398941 140.71398941 140.71398941 140.71398941 140.71398941 140.71398941 140.71398941 140.71398941 140.71398941 140.71398941 140.71398941 140.71398941 140.71398941 140.71398941 140.71398941 140.71398941 140.71398941 140.71398941 140.71398941 140.71398941 140.71398941 140.71398941 140.73629109 140.75277359 140.76103023 140.76470831 140.76809798 140.77740712 140.78654020 140.79141419 140.79141419 140.78654020 140.77740712 140.76809798 140.76470831 140.76103023 140.75277359 140.73629109 140.71398941 140.71398941 140.71398941 140.71398941 140.71398941 140.71398941 140.71398941 140.71398941 140.71398941 140.71398941 140.71398941 140.71398941 140.71398941 140.71398941 140.71398941 140.71398941 140.71398941 140.71398941 140.71398941 140.71398941 140.71398941 140.71398941 140.74659379 140.76296683 140.77776885 140.78946381 140.79524613 140.79674294 140.79734589 140.80003173 140.80361406 140.80586477 140.80586477 140.80361406 140.80003173 140.79734589 140.79674294 140.79524613 140.78946381 140.77776885 140.76296683 140.74659379 140.71398941 140.71398941 140.71398941 140.71398941 140.71398941 140.71398941 140.71398941 140.71398941 140.71398941 140.71398941 140.71398941 140.71398941 140.71398941 140.71398941 140.71398941 140.71398941 140.71398941 140.71398941 140.74416617 140.76347567 140.78410386 140.79603366 140.80213163 140.80435071 140.80300012 140.79947772 140.79592268 140.79392807 140.79337454 140.79335381 140.79335381 140.79337454 140.79392807 140.79592268 140.79947772 140.80300012 140.80435071 140.80213163 140.79603366 140.78410386 140.76347567 140.74416617 140.71398941 140.71398941 140.71398941 140.71398941 140.71398941 140.71398941 140.71398941 140.71398941 140.71398941 140.71398941 140.71398941 140.71398941 140.71398941 140.71398941 140.71398941 140.75075235 140.77840301 140.79500701 140.80376492 140.80458332 140.80037537 140.79397129 140.78682367 140.77995071 140.77428136 140.77035466 140.76806623 140.76703172 140.76703172 140.76806623 140.77035466 140.77428136 140.77995071 140.78682367 140.79397129 140.80037537 140.80458332 140.80376492 140.79500701 140.77840301 140.75075235 140.71398941 140.71398941 140.71398941 140.71398941 140.71398941 140.71398941 140.71398941 140.71398941 140.71398941 140.71398941 140.71398941 140.71398941 140.73358145 140.75842697 140.78497483 140.80105896 140.80524805 140.80086936 140.79141581 140.78033883 140.76997807 140.76125345 140.75434207 140.74920095 140.74567536 140.74351021 140.74247772 140.74247772 140.74351021 140.74567536 140.74920095 140.75434207 140.76125345 140.76997807 140.78033883 140.79141581 140.80086936 140.80524805 140.80105896 140.78497483 140.75842697 140.73358145 140.71398941 140.71398941 140.71398941 140.71398941 140.71398941 140.71398941 140.71398941 140.71398941 140.71398941 140.71398941 140.75927544 140.78878419 140.80422749 140.80549929 140.79650163 140.78269933 140.76834373 140.75590038 140.74624732 140.73922142 140.73427885 140.73089279 140.72865776 140.72729120 140.72663552 140.72663552 140.72729120 140.72865776 140.73089279 140.73427885 140.73922142 140.74624732 140.75590038 140.76834373 140.78269933 140.79650163 140.80549929 140.80422749 140.78878419 140.75927544 140.71398941 140.71398941 140.71398941 140.71398941 140.71398941 140.71398941 140.71398941 140.71398941 140.71398941 140.75265282 140.78816464 140.80680221 140.80737625 140.79517198 140.77760710 140.76046187 140.74657054 140.73651950 140.72975498 140.72538264 140.72259928 140.72083195 140.71971794 140.71905037 140.71873215 140.71873215 140.71905037 140.71971794 140.72083195 140.72259928 140.72538264 140.72975498 140.73651950 140.74657054 140.76046187 140.77760710 140.79517198 140.80737625 140.80680221 140.78816464 140.75265282 140.71398941 140.71398941 140.71398941 140.71398941 140.71398941 140.71398941 140.71398941 140.74464842 140.78216446 140.80768175 140.81211903 140.79909076 140.77821255 140.75782703 140.74199520 140.73127885 140.72462834 140.72070886 140.71845010 140.71714540 140.71637763 140.71591754 140.71564919 140.71552278 140.71552278 140.71564919 140.71591754 140.71637763 140.71714540 140.71845010 140.72070886 140.72462834 140.73127885 140.74199520 140.75782703 140.77821255 140.79909076 140.81211903 140.80768175 140.78216446 140.74464842 140.71398941 140.71398941 140.71398941 140.71398941 140.71398941 140.71398941 140.76112481 140.79975764 140.81634099 140.80862663 140.78638846 140.76191611 140.74252460 140.72984033 140.72251085 140.71859204 140.71657947 140.71555343 140.71501927 140.71472950 140.71456521 140.71447234 140.71442925 140.71442925 140.71447234 140.71456521 140.71472950 140.71501927 140.71555343 140.71657947 140.71859204 140.72251085 140.72984033 140.74252460 140.76191611 140.78638846 140.80862663 140.81634099 140.79975764 140.76112481 140.71398941 140.71398941 140.71398941 140.71398941 140.71398941 140.71398941 140.77042939 140.80852149 140.81806006 140.80221004 140.77519834 140.75025433 140.73303974 140.72320137 140.71826156 140.71597995 140.71496808 140.71451864 140.71431097 140.71420829 140.71415357 140.71412366 140.71410999 140.71410999 140.71412366 140.71415357 140.71420829 140.71431097 140.71451864 140.71496808 140.71597995 140.71826156 140.72320137 140.73303974 140.75025433 140.77519834 140.80221004 140.81806006 140.80852149 140.77042939 140.71398941 140.71398941 140.71398941 140.71398941 140.71398941 140.73199108 140.77852053 140.81268280 140.81768059 140.79778080 140.76894896 140.74441371 140.72870071 140.72042202 140.71663770 140.71507018 140.71445492 140.71421429 140.71411555 140.71407118 140.71404894 140.71403710 140.71403172 140.71403172 140.71403710 140.71404894 140.71407118 140.71411555 140.71421429 140.71445492 140.71507018 140.71663770 140.72042202 140.72870071 140.74441371 140.76894896 140.79778080 140.81768059 140.81268280 140.77852053 140.73199108 140.71398941 140.71398941 140.71398941 140.71398941 140.73199108 140.77852053 140.81268280 140.81768059 140.79778080 140.76894896 140.74441371 140.72870071 140.72042202 140.71663770 140.71507018 140.71445492 140.71421429 140.71411555 140.71407118 140.71404894 140.71403710 140.71403172 140.71403172 140.71403710 140.71404894 140.71407118 140.71411555 140.71421429 140.71445492 140.71507018 140.71663770 140.72042202 140.72870071 140.74441371 140.76894896 140.79778080 140.81768059 140.81268280 140.77852053 140.73199108 140.71398941 140.71398941 140.71398941 140.71398941 140.71398941 140.77042939 140.80852149 140.81806006 140.80221004 140.77519834 140.75025433 140.73303974 140.72320137 140.71826156 140.71597995 140.71496808 140.71451864 140.71431097 140.71420829 140.71415357 140.71412366 140.71410999 140.71410999 140.71412366 140.71415357 140.71420829 140.71431097 140.71451864 140.71496808 140.71597995 140.71826156 140.72320137 140.73303974 140.75025433 140.77519834 140.80221004 140.81806006 140.80852149 140.77042939 140.71398941 140.71398941 140.71398941 140.71398941 140.71398941 140.71398941 140.76112481 140.79975764 140.81634099 140.80862663 140.78638846 140.76191611 140.74252460 140.72984033 140.72251085 140.71859204 140.71657947 140.71555343 140.71501927 140.71472950 140.71456521 140.71447234 140.71442925 140.71442925 140.71447234 140.71456521 140.71472950 140.71501927 140.71555343 140.71657947 140.71859204 140.72251085 140.72984033 140.74252460 140.76191611 140.78638846 140.80862663 140.81634099 140.79975764 140.76112481 140.71398941 140.71398941 140.71398941 140.71398941 140.71398941 140.71398941 140.74464842 140.78216446 140.80768175 140.81211903 140.79909076 140.77821255 140.75782703 140.74199520 140.73127885 140.72462834 140.72070886 140.71845010 140.71714540 140.71637763 140.71591754 140.71564919 140.71552278 140.71552278 140.71564919 140.71591754 140.71637763 140.71714540 140.71845010 140.72070886 140.72462834 140.73127885 140.74199520 140.75782703 140.77821255 140.79909076 140.81211903 140.80768175 140.78216446 140.74464842 140.71398941 140.71398941 140.71398941 140.71398941 140.71398941 140.71398941 140.71398941 140.75265282 140.78816464 140.80680221 140.80737625 140.79517198 140.77760710 140.76046187 140.74657054 140.73651950 140.72975498 140.72538264 140.72259928 140.72083195 140.71971794 140.71905037 140.71873215 140.71873215 140.71905037 140.71971794 140.72083195 140.72259928 140.72538264 140.72975498 140.73651950 140.74657054 140.76046187 140.77760710 140.79517198 140.80737625 140.80680221 140.78816464 140.75265282 140.71398941 140.71398941 140.71398941 140.71398941 140.71398941 140.71398941 140.71398941 140.71398941 140.71398941 140.75927544 140.78878419 140.80422749 140.80549929 140.79650163 140.78269933 140.76834373 140.75590038 140.74624732 140.73922142 140.73427885 140.73089279 140.72865776 140.72729120 140.72663552 140.72663552 140.72729120 140.72865776 140.73089279 140.73427885 140.73922142 140.74624732 140.75590038 140.76834373 140.78269933 140.79650163 140.80549929 140.80422749 140.78878419 140.75927544 140.71398941 140.71398941 140.71398941 140.71398941 140.71398941 140.71398941 140.71398941 140.71398941 140.71398941 140.71398941 140.73358145 140.75842697 140.78497483 140.80105896 140.80524805 140.80086936 140.79141581 140.78033883 140.76997807 140.76125345 140.75434207 140.74920095 140.74567536 140.74351021 140.74247772 140.74247772 140.74351021 140.74567536 140.74920095 140.75434207 140.76125345 140.76997807 140.78033883 140.79141581 140.80086936 140.80524805 140.80105896 140.78497483 140.75842697 140.73358145 140.71398941 140.71398941 140.71398941 140.71398941 140.71398941 140.71398941 140.71398941 140.71398941 140.71398941 140.71398941 140.71398941 140.71398941 140.75075235 140.77840301 140.79500701 140.80376492 140.80458332 140.80037537 140.79397129 140.78682367 140.77995071 140.77428136 140.77035466 140.76806623 140.76703172 140.76703172 140.76806623 140.77035466 140.77428136 140.77995071 140.78682367 140.79397129 140.80037537 140.80458332 140.80376492 140.79500701 140.77840301 140.75075235 140.71398941 140.71398941 140.71398941 140.71398941 140.71398941 140.71398941 140.71398941 140.71398941 140.71398941 140.71398941 140.71398941 140.71398941 140.71398941 140.71398941 140.71398941 140.74416617 140.76347567 140.78410386 140.79603366 140.80213163 140.80435071 140.80300012 140.79947772 140.79592268 140.79392807 140.79337454 140.79335381 140.79335381 140.79337454 140.79392807 140.79592268 140.79947772 140.80300012 140.80435071 140.80213163 140.79603366 140.78410386 140.76347567 140.74416617 140.71398941 140.71398941 140.71398941 140.71398941 140.71398941 140.71398941 140.71398941 140.71398941 140.71398941 140.71398941 140.71398941 140.71398941 140.71398941 140.71398941 140.71398941 140.71398941 140.71398941 140.71398941 140.74659379 140.76296683 140.77776885 140.78946381 140.79524613 140.79674294 140.79734589 140.80003173 140.80361406 140.80586477 140.80586477 140.80361406 140.80003173 140.79734589 140.79674294 140.79524613 140.78946381 140.77776885 140.76296683 140.74659379 140.71398941 140.71398941 140.71398941 140.71398941 140.71398941 140.71398941 140.71398941 140.71398941 140.71398941 140.71398941 140.71398941 140.71398941 140.71398941 140.71398941 140.71398941 140.71398941 140.71398941 140.71398941 140.71398941 140.71398941 140.71398941 140.71398941 140.73629109 140.75277359 140.76103023 140.76470831 140.76809798 140.77740712 140.78654020 140.79141419 140.79141419 140.78654020 140.77740712 140.76809798 140.76470831 140.76103023 140.75277359 140.73629109 140.71398941 140.71398941 140.71398941 140.71398941 140.71398941 140.71398941 140.71398941 140.71398941 140.71398941 140.71398941 140.71398941 140.71398941 140.71398941 140.71398941 140.71398941 140.71398941 140.71398941 140.71398941 140.71398941 140.71398941 140.71398941 140.71398941 140.71398941 140.71398941 140.71398941 140.71398941 140.71398941 140.71398941 140.71398941 140.73537981 140.74878869 140.75433815 140.75433815 140.74878869 140.73537981 140.71398941 140.71398941 140.71398941 140.71398941 140.71398941 140.71398941 140.71398941 140.71398941 140.71398941 140.71398941 140.71398941 140.71398941 140.71398941 140.71398941 140.71398941 140.71398941 140.71398941 140.71398941 140.71398941 140.71398941 140.71398941 140.71398941 140.71398941 140.71398941 140.71398941 140.71398941 140.71398941 140.71398941 140.71398941 140.71398941 140.71398941 140.71398941 140.71398941 140.71398941 140.71398941 140.71398941 140.71398941 140.71398941 140.71398941 140.71398941 140.71398941 140.71398941 140.71398941 140.71398941 140.71398941 140.71398941 140.71398941 140.71398941 140.71398941 140.71398941 140.71398941 140.71398941 140.71398941 140.71398941 140.71398941 140.71398941 140.71398941 140.71398941 140.71398941 140.71398941 140.71398941 140.71398941 140.71398941 140.71398941 140.71398941 140.71398941 140.71398941 140.71398941 140.71398941 140.71398941 140.71398941 140.71398941 140.71398941 140.71398941 140.71398941 140.71398941 140.71398941 140.71398941 140.71398941 140.71398941 140.71398941 140.71398941 140.71398941 140.71398941 140.71398941 140.71398941 140.71398941 140.71398941 140.71398941 140.71398941 140.71398941 140.71398941 140.71398941 140.71398941 140.71398941 140.71398941 140.71398941 140.71398941 140.71398941 140.71398941 140.71398941 140.71398941 140.71398941 140.71398941 140.71398941 140.71398941 140.71398941 140.71398941 140.71398941 140.71398941 140.71398941 140.71398941 140.71398941 140.71398941 140.71398941 140.71398941 140.71398941 140.71398941 140.71398941 140.71398941 140.71398941 140.71398941 140.71398941 140.71398941 140.71398941 140.71398941 140.71398941 140.71398941 140.71398941 140.71398941 140.71398941 140.71398941 140.71398941 140.71398941 140.71398941 140.71398941 140.71398941 140.71398941 140.71398941 140.71398941 140.71398941 140.71398941 140.71398941 140.71398941 140.71398941 140.71398941 140.71398941 140.71398941 140.71398941 140.71398941 140.71398941 140.71398941 140.71398941 140.71398941 140.71398941 140.71398941 140.71398941 140.71398941 140.71398941 140.71398941 140.71398941 140.71398941 140.71398941 140.71398941 140.71398941 140.71398941 140.71398941 140.71398941 140.71398941 140.71398941 140.71398941 140.71398941 140.71398941 140.71398941 140.71398941 140.71398941 140.71398941 140.71398941 140.71398941 140.71398941 140.71398941 140.71398941 140.71398941 140.71398941 140.71398941 140.71398941 140.71398941 140.71398941 140.71398941 140.71398941 140.71398941 140.71398941 140.71398941 140.71398941 140.71398941 140.71398941 140.71398941 140.71398941 140.71398941 140.71398941 140.71398941 140.71398941 140.71398941 140.71398941 140.71398941 140.71398941 140.71398941 140.71398941 140.71398941 140.71398941 140.71398941 140.71398941 140.71398941 140.71398941 140.71398941 140.71398941 140.71398941 140.71398941 140.71398941 140.71398941 140.71398941 140.71398941 140.71398941 140.71398941 140.71398941 140.71398941 140.71398941 140.71398941 140.71398941 140.71398941 140.71398941 140.71398941 140.71398941 140.71398941 140.71398941 140.71398941 140.71398941 140.71398941 140.71398941 140.71398941 140.71398941 140.71398941 140.71398941 140.71398941 140.71398941 140.71398941 140.71398941 140.71398941 140.71398941 140.71398941 140.71398941 140.71398941 140.71398941 140.71398941 140.71398941 140.71398941 140.71398941 140.71398941 140.71398941 140.71398941 140.71398941 140.71398941 140.71398941 140.71398941 140.71398941 140.71398941 140.71398941 140.71398941 140.71398941 140.71398941 140.71398941 140.71398941 140.71398941 140.71398941 140.71398941 140.71398941 140.71398941 140.71398941 140.71398941 140.71398941 140.71398941 140.71398941 140.71398941 140.71398941 140.71398941 140.71398941 140.71398941 140.71398941 140.71398941 140.71398941 140.71398941 140.71398941 140.71398941 140.71398941 140.71398941 140.71398941 140.71398941 140.71398941 140.71398941 140.71398941 140.71398941 140.71398941 140.71398941 140.71398941 140.71398941 140.71398941 140.71398941 140.71398941 140.71398941 140.71398941 140.71398941 140.71398941 140.71398941 140.71398941 140.71398941 140.71398941 140.71398941 140.71398941 140.71398941 140.71398941 140.71398941 140.71398941 140.71398941 140.71398941 140.71398941 140.71398941 140.71398941 140.71398941 140.71398941 140.71398941 140.71398941 140.71398941 140.71398941 140.71398941 140.71398941 140.71398941 140.71398941 