# vtk DataFile Version 3.0
VTK - Matlab export
ASCII
DATASET STRUCTURED_POINTS
DIMENSIONS 40 40 1
SPACING 1 1 1
ORIGIN 0 0 0
POINT_DATA 1600
SCALARS lambda-2 float 1
LOOKUP_TABLE default
8.35311101 8.35311101 8.35311101 8.35311101 8.35311101 8.35311101 8.35311101 8.35311101 8.35311101 8.35311101 8.35311101 8.35311101 8.35311101 8.35311101 8.35311101 8.35311101 8.35311101 8.35311101 8.35311101 8.35311101 8.35311101 8.35311101 8.35311101 8.35311101 8.35311101 8.35311101 8.35311101 8.35311101 8.35311101 8.35311101 8.35311101 8.35311101 8.35311101 8.35311101 8.35311101 8.35311101 8.35311101 8.35311101 8.35311101 8.35311101 8.35311101 8.35311101 8.35311101 8.35311101 8.35311101 8.35311101 8.35311101 8.35311101 8.35311101 8.35311101 8.35311101 8.35311101 8.35311101 8.35311101 8.35311101 8.35311101 8.35311101 8.35311101 8.35311101 8.35311101 8.35311101 8.35311101 8.35311101 8.35311101 8.35311101 8.35311101 8.35311101 8.35311101 8.35311101 8.35311101 8.35311101 8.35311101 8.35311101 8.35311101 8.35311101 8.35311101 8.35311101 8.35311101 8.35311101 8.35311101 8.35311101 8.35311101 8.35311101 8.35311101 8.35311101 8.35311101 8.35311101 8.35311101 8.35311101 8.35311101 8.35311101 8.35311101 8.35311101 8.35311101 8.35311101 8.35311101 8.35311101 8.35311101 8.35311101 8.35311101 8.35311101 8.35311101 8.35311101 8.35311101 8.35311101 8.35311101 8.35311101 8.35311101 8.35311101 8.35311101 8.35311101 8.35311101 8.35311101 8.35311101 8.35311101 8.35311101 8.35311101 8.35311101 8.35311101 8.35311101 8.35311101 8.35311101 8.35311101 8.35311101 8.35311101 8.35311101 8.35311101 8.35311101 8.35311101 8.35311101 8.35311101 8.35311101 8.35311101 8.35311101 8.35311101 8.35311101 8.35311101 8.35311101 8.35311101 8.35311101 8.35311101 8.35311101 8.35311101 8.35311101 8.35311101 8.35311101 8.35311101 8.35311101 8.35311101 8.35311101 8.35311101 8.35311101 8.35311101 8.35311101 8.35311101 8.35311101 8.35311101 8.35311101 8.35311101 8.35311101 8.35311101 8.35311101 8.35311101 8.35311101 8.35311101 8.35311101 8.35311101 8.35311101 8.35311101 8.35311101 8.35311101 8.35311101 8.35311101 8.35311101 8.35311101 8.35311101 8.35311101 8.35311101 8.35311101 8.35311101 8.35311101 8.35311101 8.35311101 8.35311101 8.35311101 8.35311101 8.35311101 8.35311101 8.35311101 8.35311101 8.35311101 8.35311101 8.35311101 8.35311101 8.35311101 8.35311101 8.35311101 8.35311101 8.35311101 8.35311101 8.35311101 8.35311101 8.35311101 8.35311101 8.35311101 8.35311101 8.35311101 8.35311101 8.35311101 8.35311101 8.35311101 8.35311101 8.35311101 8.35311101 8.35311101 8.35311101 8.35311101 8.35311101 8.35311101 8.35311101 8.35311101 8.35311101 8.35311101 8.35311101 8.35311101 8.35311101 8.35311101 8.35311101 8.35311101 8.35311101 8.35311101 8.35311101 8.35311101 8.35311101 8.35311101 8.35311101 8.35311101 8.35311101 8.35311101 8.35311101 8.35311101 8.35311101 8.35311101 8.35311101 8.35311101 8.35311101 8.35311101 8.35311101 8.35311101 8.35311101 8.35311101 8.35311101 8.35311101 8.35311101 8.35311101 8.35311101 8.35311101 8.35311101 8.35311101 8.35311101 8.35311101 8.35311101 8.35311101 8.35311101 8.35311101 8.35311101 8.35311101 8.35311101 8.35311101 8.35311101 8.35311101 8.35311101 8.35311101 8.35311101 8.35311101 8.35311101 8.35311101 8.35311101 8.35311101 8.35311101 8.35311101 8.35311101 8.35311101 8.35311101 8.35311101 8.35311101 8.35311101 8.35311101 8.35311101 8.35311101 8.35311101 8.35311101 8.35311101 8.35311101 8.35311101 8.35311101 8.35311101 8.35311101 8.35311101 8.35311101 8.35311101 8.35311101 8.35311101 8.35311101 8.35311101 8.35311101 8.35311101 8.35311101 8.35311101 8.35311101 8.35311101 8.35311101 8.35311101 8.35311101 8.35311101 8.35311101 8.35311101 8.35311101 8.35311101 8.35311101 8.35311101 8.35311101 8.35311101 8.35311101 8.35311101 8.35311101 8.35311101 8.35311101 8.35311101 8.35311101 8.35311101 8.35311101 8.35311101 8.35311101 8.35311101 8.35311101 8.35311101 8.35034280 8.34883561 8.34828031 8.34828031 8.34883561 8.35034280 8.35311101 8.35311101 8.35311101 8.35311101 8.35311101 8.35311101 8.35311101 8.35311101 8.35311101 8.35311101 8.35311101 8.35311101 8.35311101 8.35311101 8.35311101 8.35311101 8.35311101 8.35311101 8.35311101 8.35311101 8.35311101 8.35311101 8.35311101 8.35311101 8.35311101 8.35311101 8.35311101 8.35311101 8.35311101 8.35018683 8.34800566 8.34670677 8.34586348 8.34510252 8.34381421 8.34275827 8.34224765 8.34224765 8.34275827 8.34381421 8.34510252 8.34586348 8.34670677 8.34800566 8.35018683 8.35311101 8.35311101 8.35311101 8.35311101 8.35311101 8.35311101 8.35311101 8.35311101 8.35311101 8.35311101 8.35311101 8.35311101 8.35311101 8.35311101 8.35311101 8.35311101 8.35311101 8.35311101 8.35311101 8.35311101 8.35311101 8.35311101 8.34875653 8.34632052 8.34388937 8.34170643 8.34009374 8.33894133 8.33802655 8.33714576 8.33644326 8.33607473 8.33607473 8.33644326 8.33714576 8.33802655 8.33894133 8.34009374 8.34170643 8.34388937 8.34632052 8.34875653 8.35311101 8.35311101 8.35311101 8.35311101 8.35311101 8.35311101 8.35311101 8.35311101 8.35311101 8.35311101 8.35311101 8.35311101 8.35311101 8.35311101 8.35311101 8.35311101 8.35311101 8.35311101 8.34902842 8.34607443 8.34259683 8.33977927 8.33741422 8.33546091 8.33399012 8.33293630 8.33216285 8.33155576 8.33111524 8.33088516 8.33088516 8.33111524 8.33155576 8.33216285 8.33293630 8.33399012 8.33546091 8.33741422 8.33977927 8.34259683 8.34607443 8.34902842 8.35311101 8.35311101 8.35311101 8.35311101 8.35311101 8.35311101 8.35311101 8.35311101 8.35311101 8.35311101 8.35311101 8.35311101 8.35311101 8.35311101 8.35311101 8.34791652 8.34347980 8.33974396 8.33642184 8.33375197 8.33169924 8.33018180 8.32913521 8.32845736 8.32802544 8.32773952 8.32755432 8.32746173 8.32746173 8.32755432 8.32773952 8.32802544 8.32845736 8.32913521 8.33018180 8.33169924 8.33375197 8.33642184 8.33974396 8.34347980 8.34791652 8.35311101 8.35311101 8.35311101 8.35311101 8.35311101 8.35311101 8.35311101 8.35311101 8.35311101 8.35311101 8.35311101 8.35311101 8.35055083 8.34684477 8.34207072 8.33763086 8.33389117 8.33091133 8.32873521 8.32728560 8.32642475 8.32600588 8.32588101 8.32591484 8.32600377 8.32608580 8.32613209 8.32613209 8.32608580 8.32600377 8.32591484 8.32588101 8.32600588 8.32642475 8.32728560 8.32873521 8.33091133 8.33389117 8.33763086 8.34207072 8.34684477 8.35055083 8.35311101 8.35311101 8.35311101 8.35311101 8.35311101 8.35311101 8.35311101 8.35311101 8.35311101 8.35311101 8.34689502 8.34155272 8.33654083 8.33222435 8.32884985 8.32648204 8.32506406 8.32443626 8.32438889 8.32471151 8.32521832 8.32576120 8.32623543 8.32657741 8.32675478 8.32675478 8.32657741 8.32623543 8.32576120 8.32521832 8.32471151 8.32438889 8.32443626 8.32506406 8.32648204 8.32884985 8.33222435 8.33654083 8.34155272 8.34689502 8.35311101 8.35311101 8.35311101 8.35311101 8.35311101 8.35311101 8.35311101 8.35311101 8.35311101 8.34813579 8.34228876 8.33664165 8.33163973 8.32765307 8.32487794 8.32331457 8.32280773 8.32310450 8.32392093 8.32499565 8.32611843 8.32713826 8.32795854 8.32852543 8.32881350 8.32881350 8.32852543 8.32795854 8.32713826 8.32611843 8.32499565 8.32392093 8.32310450 8.32280773 8.32331457 8.32487794 8.32765307 8.33163973 8.33664165 8.34228876 8.34813579 8.35311101 8.35311101 8.35311101 8.35311101 8.35311101 8.35311101 8.35311101 8.34954200 8.34418251 8.33817354 8.33244438 8.32762235 8.32410394 8.32203956 8.32134680 8.32177059 8.32296741 8.32458739 8.32633231 8.32798164 8.32939261 8.33048543 8.33122332 8.33159360 8.33159360 8.33122332 8.33048543 8.32939261 8.32798164 8.32633231 8.32458739 8.32296741 8.32177059 8.32134680 8.32203956 8.32410394 8.32762235 8.33244438 8.33817354 8.34418251 8.34954200 8.35311101 8.35311101 8.35311101 8.35311101 8.35311101 8.35311101 8.34751470 8.34130875 8.33496866 8.32920481 8.32462298 8.32159707 8.32022036 8.32032688 8.32157079 8.32353133 8.32580747 8.32807827 8.33012381 8.33181648 8.33309719 8.33394851 8.33437185 8.33437185 8.33394851 8.33309719 8.33181648 8.33012381 8.32807827 8.32580747 8.32353133 8.32157079 8.32032688 8.32022036 8.32159707 8.32462298 8.32920481 8.33496866 8.34130875 8.34751470 8.35311101 8.35311101 8.35311101 8.35311101 8.35311101 8.35311101 8.34621301 8.33938847 8.33279218 8.32702620 8.32266151 8.32003969 8.31920208 8.31991497 8.32176342 8.32427100 8.32700289 8.32962666 8.33192812 8.33379512 8.33518694 8.33610252 8.33655499 8.33655499 8.33610252 8.33518694 8.33379512 8.33192812 8.32962666 8.32700289 8.32427100 8.32176342 8.31991497 8.31920208 8.32003969 8.32266151 8.32702620 8.33279218 8.33938847 8.34621301 8.35311101 8.35311101 8.35311101 8.35311101 8.35311101 8.35105121 8.34515375 8.33834113 8.33167876 8.32593357 8.32169895 8.31930420 8.31876178 8.31980046 8.32196805 8.32475919 8.32772252 8.33052134 8.33294616 8.33489444 8.33633613 8.33727945 8.33774412 8.33774412 8.33727945 8.33633613 8.33489444 8.33294616 8.33052134 8.32772252 8.32475919 8.32196805 8.31980046 8.31876178 8.31930420 8.32169895 8.32593357 8.33167876 8.33834113 8.34515375 8.35105121 8.35311101 8.35311101 8.35311101 8.35311101 8.35105121 8.34515375 8.33834113 8.33167876 8.32593357 8.32169895 8.31930420 8.31876178 8.31980046 8.32196805 8.32475919 8.32772252 8.33052134 8.33294616 8.33489444 8.33633613 8.33727945 8.33774412 8.33774412 8.33727945 8.33633613 8.33489444 8.33294616 8.33052134 8.32772252 8.32475919 8.32196805 8.31980046 8.31876178 8.31930420 8.32169895 8.32593357 8.33167876 8.33834113 8.34515375 8.35105121 8.35311101 8.35311101 8.35311101 8.35311101 8.35311101 8.34621301 8.33938847 8.33279218 8.32702620 8.32266151 8.32003969 8.31920208 8.31991497 8.32176342 8.32427100 8.32700289 8.32962666 8.33192812 8.33379512 8.33518694 8.33610252 8.33655499 8.33655499 8.33610252 8.33518694 8.33379512 8.33192812 8.32962666 8.32700289 8.32427100 8.32176342 8.31991497 8.31920208 8.32003969 8.32266151 8.32702620 8.33279218 8.33938847 8.34621301 8.35311101 8.35311101 8.35311101 8.35311101 8.35311101 8.35311101 8.34751470 8.34130875 8.33496866 8.32920481 8.32462298 8.32159707 8.32022036 8.32032688 8.32157079 8.32353133 8.32580747 8.32807827 8.33012381 8.33181648 8.33309719 8.33394851 8.33437185 8.33437185 8.33394851 8.33309719 8.33181648 8.33012381 8.32807827 8.32580747 8.32353133 8.32157079 8.32032688 8.32022036 8.32159707 8.32462298 8.32920481 8.33496866 8.34130875 8.34751470 8.35311101 8.35311101 8.35311101 8.35311101 8.35311101 8.35311101 8.34954200 8.34418251 8.33817354 8.33244438 8.32762235 8.32410394 8.32203956 8.32134680 8.32177059 8.32296741 8.32458739 8.32633231 8.32798164 8.32939261 8.33048543 8.33122332 8.33159360 8.33159360 8.33122332 8.33048543 8.32939261 8.32798164 8.32633231 8.32458739 8.32296741 8.32177059 8.32134680 8.32203956 8.32410394 8.32762235 8.33244438 8.33817354 8.34418251 8.34954200 8.35311101 8.35311101 8.35311101 8.35311101 8.35311101 8.35311101 8.35311101 8.34813579 8.34228876 8.33664165 8.33163973 8.32765307 8.32487794 8.32331457 8.32280773 8.32310450 8.32392093 8.32499565 8.32611843 8.32713826 8.32795854 8.32852543 8.32881350 8.32881350 8.32852543 8.32795854 8.32713826 8.32611843 8.32499565 8.32392093 8.32310450 8.32280773 8.32331457 8.32487794 8.32765307 8.33163973 8.33664165 8.34228876 8.34813579 8.35311101 8.35311101 8.35311101 8.35311101 8.35311101 8.35311101 8.35311101 8.35311101 8.35311101 8.34689502 8.34155272 8.33654083 8.33222435 8.32884985 8.32648204 8.32506406 8.32443626 8.32438889 8.32471151 8.32521832 8.32576120 8.32623543 8.32657741 8.32675478 8.32675478 8.32657741 8.32623543 8.32576120 8.32521832 8.32471151 8.32438889 8.32443626 8.32506406 8.32648204 8.32884985 8.33222435 8.33654083 8.34155272 8.34689502 8.35311101 8.35311101 8.35311101 8.35311101 8.35311101 8.35311101 8.35311101 8.35311101 8.35311101 8.35311101 8.35055083 8.34684477 8.34207072 8.33763086 8.33389117 8.33091133 8.32873521 8.32728560 8.32642475 8.32600588 8.32588101 8.32591484 8.32600377 8.32608580 8.32613209 8.32613209 8.32608580 8.32600377 8.32591484 8.32588101 8.32600588 8.32642475 8.32728560 8.32873521 8.33091133 8.33389117 8.33763086 8.34207072 8.34684477 8.35055083 8.35311101 8.35311101 8.35311101 8.35311101 8.35311101 8.35311101 8.35311101 8.35311101 8.35311101 8.35311101 8.35311101 8.35311101 8.34791652 8.34347980 8.33974396 8.33642184 8.33375197 8.33169924 8.33018180 8.32913521 8.32845736 8.32802544 8.32773952 8.32755432 8.32746173 8.32746173 8.32755432 8.32773952 8.32802544 8.32845736 8.32913521 8.33018180 8.33169924 8.33375197 8.33642184 8.33974396 8.34347980 8.34791652 8.35311101 8.35311101 8.35311101 8.35311101 8.35311101 8.35311101 8.35311101 8.35311101 8.35311101 8.35311101 8.35311101 8.35311101 8.35311101 8.35311101 8.35311101 8.34902842 8.34607443 8.34259683 8.33977927 8.33741422 8.33546091 8.33399012 8.33293630 8.33216285 8.33155576 8.33111524 8.33088516 8.33088516 8.33111524 8.33155576 8.33216285 8.33293630 8.33399012 8.33546091 8.33741422 8.33977927 8.34259683 8.34607443 8.34902842 8.35311101 8.35311101 8.35311101 8.35311101 8.35311101 8.35311101 8.35311101 8.35311101 8.35311101 8.35311101 8.35311101 8.35311101 8.35311101 8.35311101 8.35311101 8.35311101 8.35311101 8.35311101 8.34875653 8.34632052 8.34388937 8.34170643 8.34009374 8.33894133 8.33802655 8.33714576 8.33644326 8.33607473 8.33607473 8.33644326 8.33714576 8.33802655 8.33894133 8.34009374 8.34170643 8.34388937 8.34632052 8.34875653 8.35311101 8.35311101 8.35311101 8.35311101 8.35311101 8.35311101 8.35311101 8.35311101 8.35311101 8.35311101 8.35311101 8.35311101 8.35311101 8.35311101 8.35311101 8.35311101 8.35311101 8.35311101 8.35311101 8.35311101 8.35311101 8.35311101 8.35018683 8.34800566 8.34670677 8.34586348 8.34510252 8.34381421 8.34275827 8.34224765 8.34224765 8.34275827 8.34381421 8.34510252 8.34586348 8.34670677 8.34800566 8.35018683 8.35311101 8.35311101 8.35311101 8.35311101 8.35311101 8.35311101 8.35311101 8.35311101 8.35311101 8.35311101 8.35311101 8.35311101 8.35311101 8.35311101 8.35311101 8.35311101 8.35311101 8.35311101 8.35311101 8.35311101 8.35311101 8.35311101 8.35311101 8.35311101 8.35311101 8.35311101 8.35311101 8.35311101 8.35311101 8.35034280 8.34883561 8.34828031 8.34828031 8.34883561 8.35034280 8.35311101 8.35311101 8.35311101 8.35311101 8.35311101 8.35311101 8.35311101 8.35311101 8.35311101 8.35311101 8.35311101 8.35311101 8.35311101 8.35311101 8.35311101 8.35311101 8.35311101 8.35311101 8.35311101 8.35311101 8.35311101 8.35311101 8.35311101 8.35311101 8.35311101 8.35311101 8.35311101 8.35311101 8.35311101 8.35311101 8.35311101 8.35311101 8.35311101 8.35311101 8.35311101 8.35311101 8.35311101 8.35311101 8.35311101 8.35311101 8.35311101 8.35311101 8.35311101 8.35311101 8.35311101 8.35311101 8.35311101 8.35311101 8.35311101 8.35311101 8.35311101 8.35311101 8.35311101 8.35311101 8.35311101 8.35311101 8.35311101 8.35311101 8.35311101 8.35311101 8.35311101 8.35311101 8.35311101 8.35311101 8.35311101 8.35311101 8.35311101 8.35311101 8.35311101 8.35311101 8.35311101 8.35311101 8.35311101 8.35311101 8.35311101 8.35311101 8.35311101 8.35311101 8.35311101 8.35311101 8.35311101 8.35311101 8.35311101 8.35311101 8.35311101 8.35311101 8.35311101 8.35311101 8.35311101 8.35311101 8.35311101 8.35311101 8.35311101 8.35311101 8.35311101 8.35311101 8.35311101 8.35311101 8.35311101 8.35311101 8.35311101 8.35311101 8.35311101 8.35311101 8.35311101 8.35311101 8.35311101 8.35311101 8.35311101 8.35311101 8.35311101 8.35311101 8.35311101 8.35311101 8.35311101 8.35311101 8.35311101 8.35311101 8.35311101 8.35311101 8.35311101 8.35311101 8.35311101 8.35311101 8.35311101 8.35311101 8.35311101 8.35311101 8.35311101 8.35311101 8.35311101 8.35311101 8.35311101 8.35311101 8.35311101 8.35311101 8.35311101 8.35311101 8.35311101 8.35311101 8.35311101 8.35311101 8.35311101 8.35311101 8.35311101 8.35311101 8.35311101 8.35311101 8.35311101 8.35311101 8.35311101 8.35311101 8.35311101 8.35311101 8.35311101 8.35311101 8.35311101 8.35311101 8.35311101 8.35311101 8.35311101 8.35311101 8.35311101 8.35311101 8.35311101 8.35311101 8.35311101 8.35311101 8.35311101 8.35311101 8.35311101 8.35311101 8.35311101 8.35311101 8.35311101 8.35311101 8.35311101 8.35311101 8.35311101 8.35311101 8.35311101 8.35311101 8.35311101 8.35311101 8.35311101 8.35311101 8.35311101 8.35311101 8.35311101 8.35311101 8.35311101 8.35311101 8.35311101 8.35311101 8.35311101 8.35311101 8.35311101 8.35311101 8.35311101 8.35311101 8.35311101 8.35311101 8.35311101 8.35311101 8.35311101 8.35311101 8.35311101 8.35311101 8.35311101 8.35311101 8.35311101 8.35311101 8.35311101 8.35311101 8.35311101 8.35311101 8.35311101 8.35311101 8.35311101 8.35311101 8.35311101 8.35311101 8.35311101 8.35311101 8.35311101 8.35311101 8.35311101 8.35311101 8.35311101 8.35311101 8.35311101 8.35311101 8.35311101 8.35311101 8.35311101 8.35311101 8.35311101 8.35311101 8.35311101 8.35311101 8.35311101 8.35311101 8.35311101 8.35311101 8.35311101 8.35311101 8.35311101 8.35311101 8.35311101 8.35311101 8.35311101 8.35311101 8.35311101 8.35311101 8.35311101 8.35311101 8.35311101 8.35311101 8.35311101 8.35311101 8.35311101 8.35311101 8.35311101 8.35311101 8.35311101 8.35311101 8.35311101 8.35311101 8.35311101 8.35311101 8.35311101 8.35311101 8.35311101 8.35311101 8.35311101 8.35311101 8.35311101 8.35311101 8.35311101 8.35311101 8.35311101 8.35311101 8.35311101 8.35311101 8.35311101 8.35311101 8.35311101 8.35311101 8.35311101 8.35311101 8.35311101 8.35311101 8.35311101 8.35311101 8.35311101 8.35311101 8.35311101 8.35311101 8.35311101 8.35311101 8.35311101 8.35311101 8.35311101 8.35311101 8.35311101 8.35311101 8.35311101 8.35311101 8.35311101 8.35311101 8.35311101 8.35311101 8.35311101 8.35311101 8.35311101 8.35311101 8.35311101 8.35311101 8.35311101 8.35311101 8.35311101 8.35311101 8.35311101 8.35311101 8.35311101 8.35311101 8.35311101 8.35311101 8.35311101 8.35311101 8.35311101 8.35311101 8.35311101 8.35311101 8.35311101 8.35311101 8.35311101 