# vtk DataFile Version 3.0
VTK - Matlab export
ASCII
DATASET STRUCTURED_POINTS
DIMENSIONS 40 40 1
SPACING 1 1 1
ORIGIN 0 0 0
POINT_DATA 1600
SCALARS lambda-2 float 1
LOOKUP_TABLE default
8.35311101 8.35311101 8.35311101 8.35311101 8.35311101 8.35311101 8.35311101 8.35311101 8.35311101 8.35311101 8.35311101 8.35311101 8.35311101 8.35311101 8.35311101 8.35311101 8.35311101 8.35311101 8.35311101 8.35311101 8.35311101 8.35311101 8.35311101 8.35311101 8.35311101 8.35311101 8.35311101 8.35311101 8.35311101 8.35311101 8.35311101 8.35311101 8.35311101 8.35311101 8.35311101 8.35311101 8.35311101 8.35311101 8.35311101 8.35311101 8.35311101 8.35311101 8.35311101 8.35311101 8.35311101 8.35311101 8.35311101 8.35311101 8.35311101 8.35311101 8.35311101 8.35311101 8.35311101 8.35311101 8.35311101 8.35311101 8.35311101 8.35311101 8.35311101 8.35311101 8.35311101 8.35311101 8.35311101 8.35311101 8.35311101 8.35311101 8.35311101 8.35311101 8.35311101 8.35311101 8.35311101 8.35311101 8.35311101 8.35311101 8.35311101 8.35311101 8.35311101 8.35311101 8.35311101 8.35311101 8.35311101 8.35311101 8.35311101 8.35311101 8.35311101 8.35311101 8.35311101 8.35311101 8.35311101 8.35311101 8.35311101 8.35311101 8.35311101 8.35311101 8.35311101 8.35311101 8.35311101 8.35311101 8.35311101 8.35311101 8.35311101 8.35311101 8.35311101 8.35311101 8.35311101 8.35311101 8.35311101 8.35311101 8.35311101 8.35311101 8.35311101 8.35311101 8.35311101 8.35311101 8.35311101 8.35311101 8.35311101 8.35311101 8.35311101 8.35311101 8.35311101 8.35311101 8.35311101 8.35311101 8.35311101 8.35311101 8.35311101 8.35311101 8.35311101 8.35311101 8.35311101 8.35311101 8.35311101 8.35311101 8.35311101 8.35311101 8.35311101 8.35311101 8.35311101 8.35311101 8.35311101 8.35311101 8.35311101 8.35311101 8.35311101 8.35311101 8.35311101 8.35311101 8.35311101 8.35311101 8.35311101 8.35311101 8.35311101 8.35311101 8.35311101 8.35311101 8.35311101 8.35311101 8.35311101 8.35311101 8.35311101 8.35311101 8.35311101 8.35311101 8.35311101 8.35311101 8.35311101 8.35311101 8.35311101 8.35311101 8.35311101 8.35311101 8.35311101 8.35311101 8.35311101 8.35311101 8.35311101 8.35311101 8.35311101 8.35311101 8.35311101 8.35311101 8.35311101 8.35311101 8.35311101 8.35311101 8.35311101 8.35311101 8.35311101 8.35311101 8.35311101 8.35311101 8.35311101 8.35311101 8.35311101 8.35311101 8.35311101 8.35311101 8.35311101 8.35311101 8.35311101 8.35311101 8.35311101 8.35311101 8.35311101 8.35311101 8.35311101 8.35311101 8.35311101 8.35311101 8.35311101 8.35311101 8.35311101 8.35311101 8.35311101 8.35311101 8.35311101 8.35311101 8.35311101 8.35311101 8.35311101 8.35311101 8.35311101 8.35311101 8.35311101 8.35311101 8.35311101 8.35311101 8.35311101 8.35311101 8.35311101 8.35311101 8.35311101 8.35311101 8.35311101 8.35311101 8.35311101 8.35311101 8.35311101 8.35311101 8.35311101 8.35311101 8.35311101 8.35311101 8.35311101 8.35311101 8.35311101 8.35311101 8.35311101 8.35311101 8.35311101 8.35311101 8.35311101 8.35311101 8.35311101 8.35311101 8.35311101 8.35311101 8.35311101 8.35311101 8.35311101 8.35311101 8.35311101 8.35311101 8.35311101 8.35311101 8.35311101 8.35311101 8.35311101 8.35311101 8.35311101 8.35311101 8.35311101 8.35311101 8.35311101 8.35311101 8.35311101 8.35311101 8.35311101 8.35311101 8.35311101 8.35311101 8.35311101 8.35311101 8.35311101 8.35311101 8.35311101 8.35311101 8.35311101 8.35311101 8.35311101 8.35311101 8.35311101 8.35311101 8.35311101 8.35311101 8.35311101 8.35311101 8.35311101 8.35311101 8.35311101 8.35311101 8.35311101 8.35311101 8.35311101 8.35311101 8.35311101 8.35311101 8.35311101 8.35311101 8.35311101 8.35311101 8.35311101 8.35311101 8.35311101 8.35311101 8.35311101 8.35311101 8.35311101 8.35311101 8.35311101 8.35311101 8.35311101 8.35311101 8.35311101 8.35311101 8.35311101 8.35311101 8.35311101 8.35311101 8.35311101 8.35311101 8.35311101 8.35311101 8.35311101 8.35311101 8.35311101 8.33803730 8.32878974 8.32502353 8.32502353 8.32878974 8.33803730 8.35311101 8.35311101 8.35311101 8.35311101 8.35311101 8.35311101 8.35311101 8.35311101 8.35311101 8.35311101 8.35311101 8.35311101 8.35311101 8.35311101 8.35311101 8.35311101 8.35311101 8.35311101 8.35311101 8.35311101 8.35311101 8.35311101 8.35311101 8.35311101 8.35311101 8.35311101 8.35311101 8.35311101 8.35311101 8.33735044 8.32572455 8.31976269 8.31691097 8.31429715 8.30771617 8.30142304 8.29810280 8.29810280 8.30142304 8.30771617 8.31429715 8.31691097 8.31976269 8.32572455 8.33735044 8.35311101 8.35311101 8.35311101 8.35311101 8.35311101 8.35311101 8.35311101 8.35311101 8.35311101 8.35311101 8.35311101 8.35311101 8.35311101 8.35311101 8.35311101 8.35311101 8.35311101 8.35311101 8.35311101 8.35311101 8.35311101 8.35311101 8.33003814 8.31828403 8.30752496 8.29889826 8.29431539 8.29267828 8.29175421 8.28957090 8.28693243 8.28530759 8.28530759 8.28693243 8.28957090 8.29175421 8.29267828 8.29431539 8.29889826 8.30752496 8.31828403 8.33003814 8.35311101 8.35311101 8.35311101 8.35311101 8.35311101 8.35311101 8.35311101 8.35311101 8.35311101 8.35311101 8.35311101 8.35311101 8.35311101 8.35311101 8.35311101 8.35311101 8.35311101 8.35311101 8.33175125 8.31786467 8.30283527 8.29362779 8.28839176 8.28594178 8.28610670 8.28792633 8.28993588 8.29102082 8.29121939 8.29113474 8.29113474 8.29121939 8.29102082 8.28993588 8.28792633 8.28610670 8.28594178 8.28839176 8.29362779 8.30283527 8.31786467 8.33175125 8.35311101 8.35311101 8.35311101 8.35311101 8.35311101 8.35311101 8.35311101 8.35311101 8.35311101 8.35311101 8.35311101 8.35311101 8.35311101 8.35311101 8.35311101 8.32693524 8.30698663 8.29436230 8.28694890 8.28502034 8.28680277 8.29047764 8.29501484 8.29960919 8.30351236 8.30625765 8.30785660 8.30856840 8.30856840 8.30785660 8.30625765 8.30351236 8.29960919 8.29501484 8.29047764 8.28680277 8.28502034 8.28694890 8.29436230 8.30698663 8.32693524 8.35311101 8.35311101 8.35311101 8.35311101 8.35311101 8.35311101 8.35311101 8.35311101 8.35311101 8.35311101 8.35311101 8.35311101 8.33924676 8.32142677 8.30197263 8.28936350 8.28478849 8.28631785 8.29181994 8.29900724 8.30618325 8.31253276 8.31775438 8.32174466 8.32452586 8.32623911 8.32705018 8.32705018 8.32623911 8.32452586 8.32174466 8.31775438 8.31253276 8.30618325 8.29900724 8.29181994 8.28631785 8.28478849 8.28936350 8.30197263 8.32142677 8.33924676 8.35311101 8.35311101 8.35311101 8.35311101 8.35311101 8.35311101 8.35311101 8.35311101 8.35311101 8.35311101 8.32081994 8.29910873 8.28661349 8.28379227 8.28848086 8.29724713 8.30716257 8.31630317 8.32378234 8.32948727 8.33365998 8.33660356 8.33857985 8.33979166 8.34036934 8.34036934 8.33979166 8.33857985 8.33660356 8.33365998 8.32948727 8.32378234 8.31630317 8.30716257 8.29724713 8.28848086 8.28379227 8.28661349 8.29910873 8.32081994 8.35311101 8.35311101 8.35311101 8.35311101 8.35311101 8.35311101 8.35311101 8.35311101 8.35311101 8.32564408 8.29970981 8.28471178 8.28201329 8.28878650 8.30037023 8.31267983 8.32334647 8.33154271 8.33737402 8.34133778 8.34397190 8.34569999 8.34680932 8.34747572 8.34779127 8.34779127 8.34747572 8.34680932 8.34569999 8.34397190 8.34133778 8.33737402 8.33154271 8.32334647 8.31267983 8.30037023 8.28878650 8.28201329 8.28471178 8.29970981 8.32564408 8.35311101 8.35311101 8.35311101 8.35311101 8.35311101 8.35311101 8.35311101 8.33155868 8.30453863 8.28470739 8.27884377 8.28567828 8.29944060 8.31429510 8.32678028 8.33585726 8.34187945 8.34565659 8.34795949 8.34935529 8.35020710 8.35072768 8.35103194 8.35117424 8.35117424 8.35103194 8.35072768 8.35020710 8.34935529 8.34795949 8.34565659 8.34187945 8.33585726 8.32678028 8.31429510 8.29944060 8.28567828 8.27884377 8.28470739 8.30453863 8.33155868 8.35311101 8.35311101 8.35311101 8.35311101 8.35311101 8.35311101 8.31985509 8.29149626 8.27706913 8.27934423 8.29322616 8.31071275 8.32598573 8.33688866 8.34373139 8.34768843 8.34987440 8.35106379 8.35171767 8.35208698 8.35230077 8.35242177 8.35247748 8.35247748 8.35242177 8.35230077 8.35208698 8.35171767 8.35106379 8.34987440 8.34768843 8.34373139 8.33688866 8.32598573 8.31071275 8.29322616 8.27934423 8.27706913 8.29149626 8.31985509 8.35311101 8.35311101 8.35311101 8.35311101 8.35311101 8.35311101 8.31307803 8.28456702 8.27449961 8.28249583 8.30049500 8.31931208 8.33373734 8.34285256 8.34790294 8.35047000 8.35171545 8.35231419 8.35260916 8.35276170 8.35284473 8.35289007 8.35291060 8.35291060 8.35289007 8.35284473 8.35276170 8.35260916 8.35231419 8.35171545 8.35047000 8.34790294 8.34285256 8.33373734 8.31931208 8.30049500 8.28249583 8.27449961 8.28456702 8.31307803 8.35311101 8.35311101 8.35311101 8.35311101 8.35311101 8.34041611 8.30725688 8.28116381 8.27399942 8.28495681 8.30473806 8.32380113 8.33745856 8.34550053 8.34961582 8.35152579 8.35236299 8.35272469 8.35288551 8.35296177 8.35300082 8.35302145 8.35303067 8.35303067 8.35302145 8.35300082 8.35296177 8.35288551 8.35272469 8.35236299 8.35152579 8.34961582 8.34550053 8.33745856 8.32380113 8.30473806 8.28495681 8.27399942 8.28116381 8.30725688 8.34041611 8.35311101 8.35311101 8.35311101 8.35311101 8.34041611 8.30725688 8.28116381 8.27399942 8.28495681 8.30473806 8.32380113 8.33745856 8.34550053 8.34961582 8.35152579 8.35236299 8.35272469 8.35288551 8.35296177 8.35300082 8.35302145 8.35303067 8.35303067 8.35302145 8.35300082 8.35296177 8.35288551 8.35272469 8.35236299 8.35152579 8.34961582 8.34550053 8.33745856 8.32380113 8.30473806 8.28495681 8.27399942 8.28116381 8.30725688 8.34041611 8.35311101 8.35311101 8.35311101 8.35311101 8.35311101 8.31307803 8.28456702 8.27449961 8.28249583 8.30049500 8.31931208 8.33373734 8.34285256 8.34790294 8.35047000 8.35171545 8.35231419 8.35260916 8.35276170 8.35284473 8.35289007 8.35291060 8.35291060 8.35289007 8.35284473 8.35276170 8.35260916 8.35231419 8.35171545 8.35047000 8.34790294 8.34285256 8.33373734 8.31931208 8.30049500 8.28249583 8.27449961 8.28456702 8.31307803 8.35311101 8.35311101 8.35311101 8.35311101 8.35311101 8.35311101 8.31985509 8.29149626 8.27706913 8.27934423 8.29322616 8.31071275 8.32598573 8.33688866 8.34373139 8.34768843 8.34987440 8.35106379 8.35171767 8.35208698 8.35230077 8.35242177 8.35247748 8.35247748 8.35242177 8.35230077 8.35208698 8.35171767 8.35106379 8.34987440 8.34768843 8.34373139 8.33688866 8.32598573 8.31071275 8.29322616 8.27934423 8.27706913 8.29149626 8.31985509 8.35311101 8.35311101 8.35311101 8.35311101 8.35311101 8.35311101 8.33155868 8.30453863 8.28470739 8.27884377 8.28567828 8.29944060 8.31429510 8.32678028 8.33585726 8.34187945 8.34565659 8.34795949 8.34935529 8.35020710 8.35072768 8.35103194 8.35117424 8.35117424 8.35103194 8.35072768 8.35020710 8.34935529 8.34795949 8.34565659 8.34187945 8.33585726 8.32678028 8.31429510 8.29944060 8.28567828 8.27884377 8.28470739 8.30453863 8.33155868 8.35311101 8.35311101 8.35311101 8.35311101 8.35311101 8.35311101 8.35311101 8.32564408 8.29970981 8.28471178 8.28201329 8.28878650 8.30037023 8.31267983 8.32334647 8.33154271 8.33737402 8.34133778 8.34397190 8.34569999 8.34680932 8.34747572 8.34779127 8.34779127 8.34747572 8.34680932 8.34569999 8.34397190 8.34133778 8.33737402 8.33154271 8.32334647 8.31267983 8.30037023 8.28878650 8.28201329 8.28471178 8.29970981 8.32564408 8.35311101 8.35311101 8.35311101 8.35311101 8.35311101 8.35311101 8.35311101 8.35311101 8.35311101 8.32081994 8.29910873 8.28661349 8.28379227 8.28848086 8.29724713 8.30716257 8.31630317 8.32378234 8.32948727 8.33365998 8.33660356 8.33857985 8.33979166 8.34036934 8.34036934 8.33979166 8.33857985 8.33660356 8.33365998 8.32948727 8.32378234 8.31630317 8.30716257 8.29724713 8.28848086 8.28379227 8.28661349 8.29910873 8.32081994 8.35311101 8.35311101 8.35311101 8.35311101 8.35311101 8.35311101 8.35311101 8.35311101 8.35311101 8.35311101 8.33924676 8.32142677 8.30197263 8.28936350 8.28478849 8.28631785 8.29181994 8.29900724 8.30618325 8.31253276 8.31775438 8.32174466 8.32452586 8.32623911 8.32705018 8.32705018 8.32623911 8.32452586 8.32174466 8.31775438 8.31253276 8.30618325 8.29900724 8.29181994 8.28631785 8.28478849 8.28936350 8.30197263 8.32142677 8.33924676 8.35311101 8.35311101 8.35311101 8.35311101 8.35311101 8.35311101 8.35311101 8.35311101 8.35311101 8.35311101 8.35311101 8.35311101 8.32693524 8.30698663 8.29436230 8.28694890 8.28502034 8.28680277 8.29047764 8.29501484 8.29960919 8.30351236 8.30625765 8.30785660 8.30856840 8.30856840 8.30785660 8.30625765 8.30351236 8.29960919 8.29501484 8.29047764 8.28680277 8.28502034 8.28694890 8.29436230 8.30698663 8.32693524 8.35311101 8.35311101 8.35311101 8.35311101 8.35311101 8.35311101 8.35311101 8.35311101 8.35311101 8.35311101 8.35311101 8.35311101 8.35311101 8.35311101 8.35311101 8.33175125 8.31786467 8.30283527 8.29362779 8.28839176 8.28594178 8.28610670 8.28792633 8.28993588 8.29102082 8.29121939 8.29113474 8.29113474 8.29121939 8.29102082 8.28993588 8.28792633 8.28610670 8.28594178 8.28839176 8.29362779 8.30283527 8.31786467 8.33175125 8.35311101 8.35311101 8.35311101 8.35311101 8.35311101 8.35311101 8.35311101 8.35311101 8.35311101 8.35311101 8.35311101 8.35311101 8.35311101 8.35311101 8.35311101 8.35311101 8.35311101 8.35311101 8.33003814 8.31828403 8.30752496 8.29889826 8.29431539 8.29267828 8.29175421 8.28957090 8.28693243 8.28530759 8.28530759 8.28693243 8.28957090 8.29175421 8.29267828 8.29431539 8.29889826 8.30752496 8.31828403 8.33003814 8.35311101 8.35311101 8.35311101 8.35311101 8.35311101 8.35311101 8.35311101 8.35311101 8.35311101 8.35311101 8.35311101 8.35311101 8.35311101 8.35311101 8.35311101 8.35311101 8.35311101 8.35311101 8.35311101 8.35311101 8.35311101 8.35311101 8.33735044 8.32572455 8.31976269 8.31691097 8.31429715 8.30771617 8.30142304 8.29810280 8.29810280 8.30142304 8.30771617 8.31429715 8.31691097 8.31976269 8.32572455 8.33735044 8.35311101 8.35311101 8.35311101 8.35311101 8.35311101 8.35311101 8.35311101 8.35311101 8.35311101 8.35311101 8.35311101 8.35311101 8.35311101 8.35311101 8.35311101 8.35311101 8.35311101 8.35311101 8.35311101 8.35311101 8.35311101 8.35311101 8.35311101 8.35311101 8.35311101 8.35311101 8.35311101 8.35311101 8.35311101 8.33803730 8.32878974 8.32502353 8.32502353 8.32878974 8.33803730 8.35311101 8.35311101 8.35311101 8.35311101 8.35311101 8.35311101 8.35311101 8.35311101 8.35311101 8.35311101 8.35311101 8.35311101 8.35311101 8.35311101 8.35311101 8.35311101 8.35311101 8.35311101 8.35311101 8.35311101 8.35311101 8.35311101 8.35311101 8.35311101 8.35311101 8.35311101 8.35311101 8.35311101 8.35311101 8.35311101 8.35311101 8.35311101 8.35311101 8.35311101 8.35311101 8.35311101 8.35311101 8.35311101 8.35311101 8.35311101 8.35311101 8.35311101 8.35311101 8.35311101 8.35311101 8.35311101 8.35311101 8.35311101 8.35311101 8.35311101 8.35311101 8.35311101 8.35311101 8.35311101 8.35311101 8.35311101 8.35311101 8.35311101 8.35311101 8.35311101 8.35311101 8.35311101 8.35311101 8.35311101 8.35311101 8.35311101 8.35311101 8.35311101 8.35311101 8.35311101 8.35311101 8.35311101 8.35311101 8.35311101 8.35311101 8.35311101 8.35311101 8.35311101 8.35311101 8.35311101 8.35311101 8.35311101 8.35311101 8.35311101 8.35311101 8.35311101 8.35311101 8.35311101 8.35311101 8.35311101 8.35311101 8.35311101 8.35311101 8.35311101 8.35311101 8.35311101 8.35311101 8.35311101 8.35311101 8.35311101 8.35311101 8.35311101 8.35311101 8.35311101 8.35311101 8.35311101 8.35311101 8.35311101 8.35311101 8.35311101 8.35311101 8.35311101 8.35311101 8.35311101 8.35311101 8.35311101 8.35311101 8.35311101 8.35311101 8.35311101 8.35311101 8.35311101 8.35311101 8.35311101 8.35311101 8.35311101 8.35311101 8.35311101 8.35311101 8.35311101 8.35311101 8.35311101 8.35311101 8.35311101 8.35311101 8.35311101 8.35311101 8.35311101 8.35311101 8.35311101 8.35311101 8.35311101 8.35311101 8.35311101 8.35311101 8.35311101 8.35311101 8.35311101 8.35311101 8.35311101 8.35311101 8.35311101 8.35311101 8.35311101 8.35311101 8.35311101 8.35311101 8.35311101 8.35311101 8.35311101 8.35311101 8.35311101 8.35311101 8.35311101 8.35311101 8.35311101 8.35311101 8.35311101 8.35311101 8.35311101 8.35311101 8.35311101 8.35311101 8.35311101 8.35311101 8.35311101 8.35311101 8.35311101 8.35311101 8.35311101 8.35311101 8.35311101 8.35311101 8.35311101 8.35311101 8.35311101 8.35311101 8.35311101 8.35311101 8.35311101 8.35311101 8.35311101 8.35311101 8.35311101 8.35311101 8.35311101 8.35311101 8.35311101 8.35311101 8.35311101 8.35311101 8.35311101 8.35311101 8.35311101 8.35311101 8.35311101 8.35311101 8.35311101 8.35311101 8.35311101 8.35311101 8.35311101 8.35311101 8.35311101 8.35311101 8.35311101 8.35311101 8.35311101 8.35311101 8.35311101 8.35311101 8.35311101 8.35311101 8.35311101 8.35311101 8.35311101 8.35311101 8.35311101 8.35311101 8.35311101 8.35311101 8.35311101 8.35311101 8.35311101 8.35311101 8.35311101 8.35311101 8.35311101 8.35311101 8.35311101 8.35311101 8.35311101 8.35311101 8.35311101 8.35311101 8.35311101 8.35311101 8.35311101 8.35311101 8.35311101 8.35311101 8.35311101 8.35311101 8.35311101 8.35311101 8.35311101 8.35311101 8.35311101 8.35311101 8.35311101 8.35311101 8.35311101 8.35311101 8.35311101 8.35311101 8.35311101 8.35311101 8.35311101 8.35311101 8.35311101 8.35311101 8.35311101 8.35311101 8.35311101 8.35311101 8.35311101 8.35311101 8.35311101 8.35311101 8.35311101 8.35311101 8.35311101 8.35311101 8.35311101 8.35311101 8.35311101 8.35311101 8.35311101 8.35311101 8.35311101 8.35311101 8.35311101 8.35311101 8.35311101 8.35311101 8.35311101 8.35311101 8.35311101 8.35311101 8.35311101 8.35311101 8.35311101 8.35311101 8.35311101 8.35311101 8.35311101 8.35311101 8.35311101 8.35311101 8.35311101 8.35311101 8.35311101 8.35311101 8.35311101 8.35311101 8.35311101 8.35311101 8.35311101 8.35311101 8.35311101 8.35311101 8.35311101 8.35311101 8.35311101 8.35311101 8.35311101 8.35311101 8.35311101 8.35311101 8.35311101 8.35311101 8.35311101 8.35311101 8.35311101 8.35311101 8.35311101 8.35311101 