# vtk DataFile Version 3.0
VTK - Matlab export
ASCII
DATASET STRUCTURED_POINTS
DIMENSIONS 40 40 1
SPACING 1 1 1
ORIGIN 0 0 0
POINT_DATA 1600
SCALARS Temperature float 1
LOOKUP_TABLE default
200.00000000 200.00000000 200.00000000 200.00000000 200.00000000 200.00000000 200.00000000 200.00000000 200.00000000 200.00000000 200.00000000 200.00000000 200.00000000 200.00000000 200.00000000 200.00000000 200.00000000 200.00000000 200.00000000 200.00000000 200.00000000 200.00000000 200.00000000 200.00000000 200.00000000 200.00000000 200.00000000 200.00000000 200.00000000 200.00000000 200.00000000 200.00000000 200.00000000 200.00000000 200.00000000 200.00000000 200.00000000 200.00000000 200.00000000 200.00000000 200.00000000 200.00000000 200.00000000 200.00000000 200.00000000 200.00000000 200.00000000 200.00000000 200.00000000 200.00000000 200.00000000 200.00000000 200.00000000 200.00000000 200.00000000 200.00000000 200.00000000 200.00000000 200.00000000 200.00000000 200.00000000 200.00000000 200.00000000 200.00000000 200.00000000 200.00000000 200.00000000 200.00000000 200.00000000 200.00000000 200.00000000 200.00000000 200.00000000 200.00000000 200.00000000 200.00000000 200.00000000 200.00000000 200.00000000 200.00000000 200.00000000 200.00000000 200.00000000 200.00000000 200.00000000 200.00000000 200.00000000 200.00000000 200.00000000 200.00000000 200.00000000 200.00000000 200.00000000 200.00000000 200.00000000 200.00000000 200.00000000 200.00000000 200.00000000 200.00000000 200.00000000 200.00000000 200.00000000 200.00000000 200.00000000 200.00000000 200.00000000 200.00000000 200.00000000 200.00000000 200.00000000 200.00000000 200.00000000 200.00000000 200.00000000 200.00000000 200.00000000 200.00000000 200.00000000 200.00000000 200.00000000 200.00000000 200.00000000 200.00000000 200.00000000 200.00000000 200.00000000 200.00000000 200.00000000 200.00000000 200.00000000 200.00000000 200.00000000 200.00000000 200.00000000 200.00000000 200.00000000 200.00000000 200.00000000 200.00000000 200.00000000 200.00000000 200.00000000 200.00000000 200.00000000 200.00000000 200.00000000 200.00000000 200.00000000 200.00000000 200.00000000 200.00000000 200.00000000 200.00000000 200.00000000 200.00000000 200.00000000 200.00000000 200.00000000 200.00000000 200.00000000 200.00000000 200.00000000 200.00000000 200.00000000 200.00000000 200.00000000 200.00000000 200.00000000 200.00000000 200.00000000 200.00000000 200.00000000 200.00000000 200.00000000 200.00000000 200.00000000 200.00000000 200.00000000 200.00000000 200.00000000 200.00000000 200.00000000 200.00000000 200.00000000 200.00000000 200.00000000 200.00000000 200.00000000 200.00000000 200.00000000 200.00000000 200.00000000 200.00000000 200.00000000 200.00000000 200.00000000 200.00000000 200.00000000 200.00000000 200.00000000 200.00000000 200.00000000 200.00000000 200.00000000 200.00000000 200.00000000 200.00000000 200.00000000 200.00000000 200.00000000 200.00000000 200.00000000 200.00000000 200.00000000 200.00000000 200.00000000 200.00000000 200.00000000 200.00000000 200.00000000 200.00000000 200.00000000 200.00000000 200.00000000 200.00000000 200.00000000 200.00000000 200.00000000 200.00000000 200.00000000 200.00000000 200.00000000 200.00000000 200.00000000 200.00000000 200.00000000 200.00000000 200.00000000 200.00000000 200.00000000 200.00000000 200.00000000 200.00000000 200.00000000 200.00000000 200.00000000 200.00000000 200.00000000 200.00000000 200.00000000 200.00000000 200.00000000 200.00000000 200.00000000 200.00000000 200.00000000 200.00000000 200.00000000 200.00000000 200.00000000 200.00000000 200.00000000 200.00000000 200.00000000 200.00000000 200.00000000 200.00000000 200.00000000 200.00000000 200.00000000 200.00000000 200.00000000 200.00000000 200.00000000 200.00000000 200.00000000 200.00000000 200.00000000 200.00000000 200.00000000 200.00000000 200.00000000 200.00000000 200.00000000 200.00000000 200.00000000 200.00000000 200.00000000 200.00000000 200.00000000 200.00000000 200.00000000 200.00000000 200.00000000 200.00000000 200.00000000 200.00000000 200.00000000 200.00000000 200.00000000 200.00000000 200.00000000 200.00000000 200.00000000 200.00000000 200.00000000 200.00000000 200.00000000 200.00000000 200.00000000 200.00000000 200.00000000 200.00000000 200.00000000 200.00000000 200.00000000 200.00000000 200.00000000 200.00000000 200.00000000 200.00000000 200.00000000 200.00000000 200.00000000 200.00000000 200.00000000 200.00000000 200.00000000 200.00000000 200.00000000 200.00000000 200.00000000 200.00000000 200.00000000 200.00000000 200.00000000 223.67004800 236.40692246 241.07195200 241.07195200 236.40692246 223.67004800 200.00000000 200.00000000 200.00000000 200.00000000 200.00000000 200.00000000 200.00000000 200.00000000 200.00000000 200.00000000 200.00000000 200.00000000 200.00000000 200.00000000 200.00000000 200.00000000 200.00000000 200.00000000 200.00000000 200.00000000 200.00000000 200.00000000 200.00000000 200.00000000 200.00000000 200.00000000 200.00000000 200.00000000 200.00000000 223.83624454 242.11605037 253.65194416 261.72419103 269.13282519 280.73347192 290.05764257 294.55847024 294.55847024 290.05764257 280.73347192 269.13282519 261.72419103 253.65194416 242.11605037 223.83624454 200.00000000 200.00000000 200.00000000 200.00000000 200.00000000 200.00000000 200.00000000 200.00000000 200.00000000 200.00000000 200.00000000 200.00000000 200.00000000 200.00000000 200.00000000 200.00000000 200.00000000 200.00000000 200.00000000 200.00000000 200.00000000 200.00000000 234.26665987 254.52410908 275.70936278 295.66263728 311.57675068 323.99362252 334.30346277 343.81327549 351.13774057 354.94700933 354.94700933 351.13774057 343.81327549 334.30346277 323.99362252 311.57675068 295.66263728 275.70936278 254.52410908 234.26665987 200.00000000 200.00000000 200.00000000 200.00000000 200.00000000 200.00000000 200.00000000 200.00000000 200.00000000 200.00000000 200.00000000 200.00000000 200.00000000 200.00000000 200.00000000 200.00000000 200.00000000 200.00000000 230.66039600 254.18755466 283.23576995 308.79101319 332.21622438 353.36561798 371.16642538 385.58463242 397.16244677 406.36443782 412.89929932 416.27256337 416.27256337 412.89929932 406.36443782 397.16244677 385.58463242 371.16642538 353.36561798 332.21622438 308.79101319 283.23576995 254.18755466 230.66039600 200.00000000 200.00000000 200.00000000 200.00000000 200.00000000 200.00000000 200.00000000 200.00000000 200.00000000 200.00000000 200.00000000 200.00000000 200.00000000 200.00000000 200.00000000 237.94214647 272.29669652 303.88660199 334.86101462 363.12545058 388.35951664 410.40989312 428.95636926 444.02250081 455.90289342 464.87283095 470.95536514 474.03394038 474.03394038 470.95536514 464.87283095 455.90289342 444.02250081 428.95636926 410.40989312 388.35951664 363.12545058 334.86101462 303.88660199 272.29669652 237.94214647 200.00000000 200.00000000 200.00000000 200.00000000 200.00000000 200.00000000 200.00000000 200.00000000 200.00000000 200.00000000 200.00000000 200.00000000 217.52194688 244.03624024 280.25153279 317.12971349 352.41319999 385.44913358 415.21865825 441.28276475 463.52795708 481.96350396 496.77527868 508.26897614 516.73143882 522.32812556 525.11845218 525.11845218 522.32812556 516.73143882 508.26897614 496.77527868 481.96350396 463.52795708 441.28276475 415.21865825 385.44913358 352.41319999 317.12971349 280.25153279 244.03624024 217.52194688 200.00000000 200.00000000 200.00000000 200.00000000 200.00000000 200.00000000 200.00000000 200.00000000 200.00000000 200.00000000 242.16296335 280.85729747 320.94656466 360.58410932 398.09845876 432.39513462 462.69767557 488.68377069 510.38018229 528.01657994 541.94861007 552.57750172 560.26186908 565.26005475 567.72473012 567.72473012 565.26005475 560.26186908 552.57750172 541.94861007 528.01657994 510.38018229 488.68377069 462.69767557 432.39513462 398.09845876 360.58410932 320.94656466 280.85729747 242.16296335 200.00000000 200.00000000 200.00000000 200.00000000 200.00000000 200.00000000 200.00000000 200.00000000 200.00000000 232.46221968 272.67848684 315.15715547 358.23828439 400.01146835 438.84503381 473.61023792 503.67983985 528.90466336 549.49595502 565.87702496 578.56246412 588.06335193 594.81695324 599.14850075 601.26485721 601.26485721 599.14850075 594.81695324 588.06335193 578.56246412 565.87702496 549.49595502 528.90466336 503.67983985 473.61023792 438.84503381 400.01146835 358.23828439 315.15715547 272.67848684 232.46221968 200.00000000 200.00000000 200.00000000 200.00000000 200.00000000 200.00000000 200.00000000 222.51675637 257.62168880 299.83370755 344.96760568 390.25327232 433.47582089 472.95069794 507.59997249 536.94618791 561.02667623 580.24225810 595.18962599 606.52080562 614.84314588 620.65883071 624.33877241 626.12119596 626.12119596 624.33877241 620.65883071 614.84314588 606.52080562 595.18962599 580.24225810 561.02667623 536.94618791 507.59997249 472.95069794 433.47582089 390.25327232 344.96760568 299.83370755 257.62168880 222.51675637 200.00000000 200.00000000 200.00000000 200.00000000 200.00000000 200.00000000 235.08652405 275.76524626 321.11442439 368.54916210 415.45237779 459.57542286 499.24495995 533.46726798 561.91077838 584.78433464 602.65533672 616.26273075 626.36589904 633.64457844 638.64635533 641.77002743 643.27038298 643.27038298 641.77002743 638.64635533 633.64457844 626.36589904 616.26273075 602.65533672 584.78433464 561.91077838 533.46726798 499.24495995 459.57542286 415.45237779 368.54916210 321.11442439 275.76524626 235.08652405 200.00000000 200.00000000 200.00000000 200.00000000 200.00000000 200.00000000 243.08283873 287.87560195 335.70891418 384.81139345 432.77552054 477.39576207 517.03976672 550.79540959 578.44872917 600.33965244 617.15826014 629.74382413 638.92823863 645.43784551 649.84732557 652.57013529 653.86850119 653.86850119 652.57013529 649.84732557 645.43784551 638.92823863 629.74382413 617.15826014 600.33965244 578.44872917 550.79540959 517.03976672 477.39576207 432.77552054 384.81139345 335.70891418 287.87560195 243.08283873 200.00000000 200.00000000 200.00000000 200.00000000 200.00000000 212.66480312 249.53114768 294.45703639 343.22193931 393.11528183 441.58763933 486.41930960 525.99926395 559.46274639 586.66114068 608.00521160 624.24983252 636.28591109 644.98158243 651.08562074 655.18496946 657.69902909 658.89257449 658.89257449 657.69902909 655.18496946 651.08562074 644.98158243 636.28591109 624.24983252 608.00521160 586.66114068 559.46274639 525.99926395 486.41930960 441.58763933 393.11528183 343.22193931 294.45703639 249.53114768 212.66480312 200.00000000 200.00000000 200.00000000 200.00000000 212.66480312 249.53114768 294.45703639 343.22193931 393.11528183 441.58763933 486.41930960 525.99926395 559.46274639 586.66114068 608.00521160 624.24983252 636.28591109 644.98158243 651.08562074 655.18496946 657.69902909 658.89257449 658.89257449 657.69902909 655.18496946 651.08562074 644.98158243 636.28591109 624.24983252 608.00521160 586.66114068 559.46274639 525.99926395 486.41930960 441.58763933 393.11528183 343.22193931 294.45703639 249.53114768 212.66480312 200.00000000 200.00000000 200.00000000 200.00000000 200.00000000 243.08283873 287.87560195 335.70891418 384.81139345 432.77552054 477.39576207 517.03976672 550.79540959 578.44872917 600.33965244 617.15826014 629.74382413 638.92823863 645.43784551 649.84732557 652.57013529 653.86850119 653.86850119 652.57013529 649.84732557 645.43784551 638.92823863 629.74382413 617.15826014 600.33965244 578.44872917 550.79540959 517.03976672 477.39576207 432.77552054 384.81139345 335.70891418 287.87560195 243.08283873 200.00000000 200.00000000 200.00000000 200.00000000 200.00000000 200.00000000 235.08652405 275.76524626 321.11442439 368.54916210 415.45237779 459.57542286 499.24495995 533.46726798 561.91077838 584.78433464 602.65533672 616.26273075 626.36589904 633.64457844 638.64635533 641.77002743 643.27038298 643.27038298 641.77002743 638.64635533 633.64457844 626.36589904 616.26273075 602.65533672 584.78433464 561.91077838 533.46726798 499.24495995 459.57542286 415.45237779 368.54916210 321.11442439 275.76524626 235.08652405 200.00000000 200.00000000 200.00000000 200.00000000 200.00000000 200.00000000 222.51675637 257.62168880 299.83370755 344.96760568 390.25327232 433.47582089 472.95069794 507.59997249 536.94618791 561.02667623 580.24225810 595.18962599 606.52080562 614.84314588 620.65883071 624.33877241 626.12119596 626.12119596 624.33877241 620.65883071 614.84314588 606.52080562 595.18962599 580.24225810 561.02667623 536.94618791 507.59997249 472.95069794 433.47582089 390.25327232 344.96760568 299.83370755 257.62168880 222.51675637 200.00000000 200.00000000 200.00000000 200.00000000 200.00000000 200.00000000 200.00000000 232.46221968 272.67848684 315.15715547 358.23828439 400.01146835 438.84503381 473.61023792 503.67983985 528.90466336 549.49595502 565.87702496 578.56246412 588.06335193 594.81695324 599.14850075 601.26485721 601.26485721 599.14850075 594.81695324 588.06335193 578.56246412 565.87702496 549.49595502 528.90466336 503.67983985 473.61023792 438.84503381 400.01146835 358.23828439 315.15715547 272.67848684 232.46221968 200.00000000 200.00000000 200.00000000 200.00000000 200.00000000 200.00000000 200.00000000 200.00000000 200.00000000 242.16296335 280.85729747 320.94656466 360.58410932 398.09845876 432.39513462 462.69767557 488.68377069 510.38018229 528.01657994 541.94861007 552.57750172 560.26186908 565.26005475 567.72473012 567.72473012 565.26005475 560.26186908 552.57750172 541.94861007 528.01657994 510.38018229 488.68377069 462.69767557 432.39513462 398.09845876 360.58410932 320.94656466 280.85729747 242.16296335 200.00000000 200.00000000 200.00000000 200.00000000 200.00000000 200.00000000 200.00000000 200.00000000 200.00000000 200.00000000 217.52194688 244.03624024 280.25153279 317.12971349 352.41319999 385.44913358 415.21865825 441.28276475 463.52795708 481.96350396 496.77527868 508.26897614 516.73143882 522.32812556 525.11845218 525.11845218 522.32812556 516.73143882 508.26897614 496.77527868 481.96350396 463.52795708 441.28276475 415.21865825 385.44913358 352.41319999 317.12971349 280.25153279 244.03624024 217.52194688 200.00000000 200.00000000 200.00000000 200.00000000 200.00000000 200.00000000 200.00000000 200.00000000 200.00000000 200.00000000 200.00000000 200.00000000 237.94214647 272.29669652 303.88660199 334.86101462 363.12545058 388.35951664 410.40989312 428.95636926 444.02250081 455.90289342 464.87283095 470.95536514 474.03394038 474.03394038 470.95536514 464.87283095 455.90289342 444.02250081 428.95636926 410.40989312 388.35951664 363.12545058 334.86101462 303.88660199 272.29669652 237.94214647 200.00000000 200.00000000 200.00000000 200.00000000 200.00000000 200.00000000 200.00000000 200.00000000 200.00000000 200.00000000 200.00000000 200.00000000 200.00000000 200.00000000 200.00000000 230.66039600 254.18755466 283.23576995 308.79101319 332.21622438 353.36561798 371.16642538 385.58463242 397.16244677 406.36443782 412.89929932 416.27256337 416.27256337 412.89929932 406.36443782 397.16244677 385.58463242 371.16642538 353.36561798 332.21622438 308.79101319 283.23576995 254.18755466 230.66039600 200.00000000 200.00000000 200.00000000 200.00000000 200.00000000 200.00000000 200.00000000 200.00000000 200.00000000 200.00000000 200.00000000 200.00000000 200.00000000 200.00000000 200.00000000 200.00000000 200.00000000 200.00000000 234.26665987 254.52410908 275.70936278 295.66263728 311.57675068 323.99362252 334.30346277 343.81327549 351.13774057 354.94700933 354.94700933 351.13774057 343.81327549 334.30346277 323.99362252 311.57675068 295.66263728 275.70936278 254.52410908 234.26665987 200.00000000 200.00000000 200.00000000 200.00000000 200.00000000 200.00000000 200.00000000 200.00000000 200.00000000 200.00000000 200.00000000 200.00000000 200.00000000 200.00000000 200.00000000 200.00000000 200.00000000 200.00000000 200.00000000 200.00000000 200.00000000 200.00000000 223.83624454 242.11605037 253.65194416 261.72419103 269.13282519 280.73347192 290.05764257 294.55847024 294.55847024 290.05764257 280.73347192 269.13282519 261.72419103 253.65194416 242.11605037 223.83624454 200.00000000 200.00000000 200.00000000 200.00000000 200.00000000 200.00000000 200.00000000 200.00000000 200.00000000 200.00000000 200.00000000 200.00000000 200.00000000 200.00000000 200.00000000 200.00000000 200.00000000 200.00000000 200.00000000 200.00000000 200.00000000 200.00000000 200.00000000 200.00000000 200.00000000 200.00000000 200.00000000 200.00000000 200.00000000 223.67004800 236.40692246 241.07195200 241.07195200 236.40692246 223.67004800 200.00000000 200.00000000 200.00000000 200.00000000 200.00000000 200.00000000 200.00000000 200.00000000 200.00000000 200.00000000 200.00000000 200.00000000 200.00000000 200.00000000 200.00000000 200.00000000 200.00000000 200.00000000 200.00000000 200.00000000 200.00000000 200.00000000 200.00000000 200.00000000 200.00000000 200.00000000 200.00000000 200.00000000 200.00000000 200.00000000 200.00000000 200.00000000 200.00000000 200.00000000 200.00000000 200.00000000 200.00000000 200.00000000 200.00000000 200.00000000 200.00000000 200.00000000 200.00000000 200.00000000 200.00000000 200.00000000 200.00000000 200.00000000 200.00000000 200.00000000 200.00000000 200.00000000 200.00000000 200.00000000 200.00000000 200.00000000 200.00000000 200.00000000 200.00000000 200.00000000 200.00000000 200.00000000 200.00000000 200.00000000 200.00000000 200.00000000 200.00000000 200.00000000 200.00000000 200.00000000 200.00000000 200.00000000 200.00000000 200.00000000 200.00000000 200.00000000 200.00000000 200.00000000 200.00000000 200.00000000 200.00000000 200.00000000 200.00000000 200.00000000 200.00000000 200.00000000 200.00000000 200.00000000 200.00000000 200.00000000 200.00000000 200.00000000 200.00000000 200.00000000 200.00000000 200.00000000 200.00000000 200.00000000 200.00000000 200.00000000 200.00000000 200.00000000 200.00000000 200.00000000 200.00000000 200.00000000 200.00000000 200.00000000 200.00000000 200.00000000 200.00000000 200.00000000 200.00000000 200.00000000 200.00000000 200.00000000 200.00000000 200.00000000 200.00000000 200.00000000 200.00000000 200.00000000 200.00000000 200.00000000 200.00000000 200.00000000 200.00000000 200.00000000 200.00000000 200.00000000 200.00000000 200.00000000 200.00000000 200.00000000 200.00000000 200.00000000 200.00000000 200.00000000 200.00000000 200.00000000 200.00000000 200.00000000 200.00000000 200.00000000 200.00000000 200.00000000 200.00000000 200.00000000 200.00000000 200.00000000 200.00000000 200.00000000 200.00000000 200.00000000 200.00000000 200.00000000 200.00000000 200.00000000 200.00000000 200.00000000 200.00000000 200.00000000 200.00000000 200.00000000 200.00000000 200.00000000 200.00000000 200.00000000 200.00000000 200.00000000 200.00000000 200.00000000 200.00000000 200.00000000 200.00000000 200.00000000 200.00000000 200.00000000 200.00000000 200.00000000 200.00000000 200.00000000 200.00000000 200.00000000 200.00000000 200.00000000 200.00000000 200.00000000 200.00000000 200.00000000 200.00000000 200.00000000 200.00000000 200.00000000 200.00000000 200.00000000 200.00000000 200.00000000 200.00000000 200.00000000 200.00000000 200.00000000 200.00000000 200.00000000 200.00000000 200.00000000 200.00000000 200.00000000 200.00000000 200.00000000 200.00000000 200.00000000 200.00000000 200.00000000 200.00000000 200.00000000 200.00000000 200.00000000 200.00000000 200.00000000 200.00000000 200.00000000 200.00000000 200.00000000 200.00000000 200.00000000 200.00000000 200.00000000 200.00000000 200.00000000 200.00000000 200.00000000 200.00000000 200.00000000 200.00000000 200.00000000 200.00000000 200.00000000 200.00000000 200.00000000 200.00000000 200.00000000 200.00000000 200.00000000 200.00000000 200.00000000 200.00000000 200.00000000 200.00000000 200.00000000 200.00000000 200.00000000 200.00000000 200.00000000 200.00000000 200.00000000 200.00000000 200.00000000 200.00000000 200.00000000 200.00000000 200.00000000 200.00000000 200.00000000 200.00000000 200.00000000 200.00000000 200.00000000 200.00000000 200.00000000 200.00000000 200.00000000 200.00000000 200.00000000 200.00000000 200.00000000 200.00000000 200.00000000 200.00000000 200.00000000 200.00000000 200.00000000 200.00000000 200.00000000 200.00000000 200.00000000 200.00000000 200.00000000 200.00000000 200.00000000 200.00000000 200.00000000 200.00000000 200.00000000 200.00000000 200.00000000 200.00000000 200.00000000 200.00000000 200.00000000 200.00000000 200.00000000 200.00000000 200.00000000 200.00000000 200.00000000 200.00000000 200.00000000 200.00000000 200.00000000 200.00000000 200.00000000 200.00000000 200.00000000 200.00000000 200.00000000 200.00000000 200.00000000 200.00000000 200.00000000 200.00000000 200.00000000 200.00000000 200.00000000 200.00000000 200.00000000 200.00000000 200.00000000 200.00000000 200.00000000 200.00000000 200.00000000 200.00000000 200.00000000 200.00000000 200.00000000 200.00000000 