# vtk DataFile Version 3.0
VTK - Matlab export
ASCII
DATASET STRUCTURED_POINTS
DIMENSIONS 40 40 1
SPACING 1 1 1
ORIGIN 0 0 0
POINT_DATA 1600
SCALARS lambda-2 float 1
LOOKUP_TABLE default
8.35311101 8.35311101 8.35311101 8.35311101 8.35311101 8.35311101 8.35311101 8.35311101 8.35311101 8.35311101 8.35311101 8.35311101 8.35311101 8.35311101 8.35311101 8.35311101 8.35311101 8.35311101 8.35311101 8.35311101 8.35311101 8.35311101 8.35311101 8.35311101 8.35311101 8.35311101 8.35311101 8.35311101 8.35311101 8.35311101 8.35311101 8.35311101 8.35311101 8.35311101 8.35311101 8.35311101 8.35311101 8.35311101 8.35311101 8.35311101 8.35311101 8.35311101 8.35311101 8.35311101 8.35311101 8.35311101 8.35311101 8.35311101 8.35311101 8.35311101 8.35311101 8.35311101 8.35311101 8.35311101 8.35311101 8.35311101 8.35311101 8.35311101 8.35311101 8.35311101 8.35311101 8.35311101 8.35311101 8.35311101 8.35311101 8.35311101 8.35311101 8.35311101 8.35311101 8.35311101 8.35311101 8.35311101 8.35311101 8.35311101 8.35311101 8.35311101 8.35311101 8.35311101 8.35311101 8.35311101 8.35311101 8.35311101 8.35311101 8.35311101 8.35311101 8.35311101 8.35311101 8.35311101 8.35311101 8.35311101 8.35311101 8.35311101 8.35311101 8.35311101 8.35311101 8.35311101 8.35311101 8.35311101 8.35311101 8.35311101 8.35311101 8.35311101 8.35311101 8.35311101 8.35311101 8.35311101 8.35311101 8.35311101 8.35311101 8.35311101 8.35311101 8.35311101 8.35311101 8.35311101 8.35311101 8.35311101 8.35311101 8.35311101 8.35311101 8.35311101 8.35311101 8.35311101 8.35311101 8.35311101 8.35311101 8.35311101 8.35311101 8.35311101 8.35311101 8.35311101 8.35311101 8.35311101 8.35311101 8.35311101 8.35311101 8.35311101 8.35311101 8.35311101 8.35311101 8.35311101 8.35311101 8.35311101 8.35311101 8.35311101 8.35311101 8.35311101 8.35311101 8.35311101 8.35311101 8.35311101 8.35311101 8.35311101 8.35311101 8.35311101 8.35311101 8.35311101 8.35311101 8.35311101 8.35311101 8.35311101 8.35311101 8.35311101 8.35311101 8.35311101 8.35311101 8.35311101 8.35311101 8.35311101 8.35311101 8.35311101 8.35311101 8.35311101 8.35311101 8.35311101 8.35311101 8.35311101 8.35311101 8.35311101 8.35311101 8.35311101 8.35311101 8.35311101 8.35311101 8.35311101 8.35311101 8.35311101 8.35311101 8.35311101 8.35311101 8.35311101 8.35311101 8.35311101 8.35311101 8.35311101 8.35311101 8.35311101 8.35311101 8.35311101 8.35311101 8.35311101 8.35311101 8.35311101 8.35311101 8.35311101 8.35311101 8.35311101 8.35311101 8.35311101 8.35311101 8.35311101 8.35311101 8.35311101 8.35311101 8.35311101 8.35311101 8.35311101 8.35311101 8.35311101 8.35311101 8.35311101 8.35311101 8.35311101 8.35311101 8.35311101 8.35311101 8.35311101 8.35311101 8.35311101 8.35311101 8.35311101 8.35311101 8.35311101 8.35311101 8.35311101 8.35311101 8.35311101 8.35311101 8.35311101 8.35311101 8.35311101 8.35311101 8.35311101 8.35311101 8.35311101 8.35311101 8.35311101 8.35311101 8.35311101 8.35311101 8.35311101 8.35311101 8.35311101 8.35311101 8.35311101 8.35311101 8.35311101 8.35311101 8.35311101 8.35311101 8.35311101 8.35311101 8.35311101 8.35311101 8.35311101 8.35311101 8.35311101 8.35311101 8.35311101 8.35311101 8.35311101 8.35311101 8.35311101 8.35311101 8.35311101 8.35311101 8.35311101 8.35311101 8.35311101 8.35311101 8.35311101 8.35311101 8.35311101 8.35311101 8.35311101 8.35311101 8.35311101 8.35311101 8.35311101 8.35311101 8.35311101 8.35311101 8.35311101 8.35311101 8.35311101 8.35311101 8.35311101 8.35311101 8.35311101 8.35311101 8.35311101 8.35311101 8.35311101 8.35311101 8.35311101 8.35311101 8.35311101 8.35311101 8.35311101 8.35311101 8.35311101 8.35311101 8.35311101 8.35311101 8.35311101 8.35311101 8.35311101 8.35311101 8.35311101 8.35311101 8.35311101 8.35311101 8.35311101 8.35311101 8.35311101 8.35311101 8.35311101 8.35311101 8.35311101 8.35311101 8.35311101 8.35311101 8.35311101 8.35311101 8.35311101 8.35311101 8.35311101 8.35311101 8.34146624 8.33453412 8.33178120 8.33178120 8.33453412 8.34146624 8.35311101 8.35311101 8.35311101 8.35311101 8.35311101 8.35311101 8.35311101 8.35311101 8.35311101 8.35311101 8.35311101 8.35311101 8.35311101 8.35311101 8.35311101 8.35311101 8.35311101 8.35311101 8.35311101 8.35311101 8.35311101 8.35311101 8.35311101 8.35311101 8.35311101 8.35311101 8.35311101 8.35311101 8.35311101 8.34088441 8.33184755 8.32703627 8.32450856 8.32220685 8.31705110 8.31231322 8.30986593 8.30986593 8.31231322 8.31705110 8.32220685 8.32450856 8.32703627 8.33184755 8.34088441 8.35311101 8.35311101 8.35311101 8.35311101 8.35311101 8.35311101 8.35311101 8.35311101 8.35311101 8.35311101 8.35311101 8.35311101 8.35311101 8.35311101 8.35311101 8.35311101 8.35311101 8.35311101 8.35311101 8.35311101 8.35311101 8.35311101 8.33515291 8.32576669 8.31698576 8.30975888 8.30552767 8.30350939 8.30215041 8.30007056 8.29787406 8.29657489 8.29657489 8.29787406 8.30007056 8.30215041 8.30350939 8.30552767 8.30975888 8.31698576 8.32576669 8.33515291 8.35311101 8.35311101 8.35311101 8.35311101 8.35311101 8.35311101 8.35311101 8.35311101 8.35311101 8.35311101 8.35311101 8.35311101 8.35311101 8.35311101 8.35311101 8.35311101 8.35311101 8.35311101 8.33646727 8.32534136 8.31302106 8.30483795 8.29955134 8.29645645 8.29549354 8.29596239 8.29679286 8.29715551 8.29704114 8.29685427 8.29685427 8.29704114 8.29715551 8.29679286 8.29596239 8.29549354 8.29645645 8.29955134 8.30483795 8.31302106 8.32534136 8.33646727 8.35311101 8.35311101 8.35311101 8.35311101 8.35311101 8.35311101 8.35311101 8.35311101 8.35311101 8.35311101 8.35311101 8.35311101 8.35311101 8.35311101 8.35311101 8.33250860 8.31638876 8.30536903 8.29797854 8.29467734 8.29440964 8.29598454 8.29862905 8.30164289 8.30435615 8.30632261 8.30747916 8.30799024 8.30799024 8.30747916 8.30632261 8.30435615 8.30164289 8.29862905 8.29598454 8.29440964 8.29467734 8.29797854 8.30536903 8.31638876 8.33250860 8.35311101 8.35311101 8.35311101 8.35311101 8.35311101 8.35311101 8.35311101 8.35311101 8.35311101 8.35311101 8.35311101 8.35311101 8.34232195 8.32809868 8.31197837 8.30046892 8.29473369 8.29374330 8.29624003 8.30066792 8.30571758 8.31059959 8.31487437 8.31828819 8.32073837 8.32226946 8.32299502 8.32299502 8.32226946 8.32073837 8.31828819 8.31487437 8.31059959 8.30571758 8.30066792 8.29624003 8.29374330 8.29473369 8.30046892 8.31197837 8.32809868 8.34232195 8.35311101 8.35311101 8.35311101 8.35311101 8.35311101 8.35311101 8.35311101 8.35311101 8.35311101 8.35311101 8.32764048 8.30953390 8.29763498 8.29277752 8.29397522 8.29909924 8.30604985 8.31320496 8.31960008 8.32485873 8.32894826 8.33196994 8.33406117 8.33536096 8.33598106 8.33598106 8.33536096 8.33406117 8.33196994 8.32894826 8.32485873 8.31960008 8.31320496 8.30604985 8.29909924 8.29397522 8.29277752 8.29763498 8.30953390 8.32764048 8.35311101 8.35311101 8.35311101 8.35311101 8.35311101 8.35311101 8.35311101 8.35311101 8.35311101 8.33161662 8.31027631 8.29609891 8.29078266 8.29321545 8.30056587 8.30982189 8.31882099 8.32644079 8.33235905 8.33671240 8.33980642 8.34194396 8.34336219 8.34422580 8.34463483 8.34463483 8.34422580 8.34336219 8.34194396 8.33980642 8.33671240 8.33235905 8.32644079 8.31882099 8.30982189 8.30056587 8.29321545 8.29078266 8.29609891 8.31027631 8.33161662 8.35311101 8.35311101 8.35311101 8.35311101 8.35311101 8.35311101 8.35311101 8.33653621 8.31483279 8.29699502 8.28868151 8.29039291 8.29902541 8.31042782 8.32140559 8.33036636 8.33697350 8.34154211 8.34458461 8.34657336 8.34785969 8.34867493 8.34915817 8.34938412 8.34938412 8.34915817 8.34867493 8.34785969 8.34657336 8.34458461 8.34154211 8.33697350 8.33036636 8.32140559 8.31042782 8.29902541 8.29039291 8.28868151 8.29699502 8.31483279 8.33653621 8.35311101 8.35311101 8.35311101 8.35311101 8.35311101 8.35311101 8.32736345 8.30388717 8.28906828 8.28630637 8.29381865 8.30664493 8.31994439 8.33090489 8.33875603 8.34389467 8.34707801 8.34899713 8.35014751 8.35084120 8.35125903 8.35149895 8.35160932 8.35160932 8.35149895 8.35125903 8.35084120 8.35014751 8.34899713 8.34707801 8.34389467 8.33875603 8.33090489 8.31994439 8.30664493 8.29381865 8.28630637 8.28906828 8.30388717 8.32736345 8.35311101 8.35311101 8.35311101 8.35311101 8.35311101 8.35311101 8.32185366 8.29757145 8.28529361 8.28669014 8.29805254 8.31314619 8.32694247 8.33718873 8.34382365 8.34774302 8.34993230 8.35112566 8.35177790 8.35214184 8.35234875 8.35246324 8.35251491 8.35251491 8.35246324 8.35234875 8.35214184 8.35177790 8.35112566 8.34993230 8.34774302 8.34382365 8.33718873 8.32694247 8.31314619 8.29805254 8.28669014 8.28529361 8.29757145 8.32185366 8.35311101 8.35311101 8.35311101 8.35311101 8.35311101 8.34332675 8.31718882 8.29433844 8.28387990 8.28753683 8.30076496 8.31676789 8.33054421 8.34021975 8.34612391 8.34938947 8.35108581 8.35194187 8.35237529 8.35260109 8.35272277 8.35278779 8.35281661 8.35281661 8.35278779 8.35272277 8.35260109 8.35237529 8.35194187 8.35108581 8.34938947 8.34612391 8.34021975 8.33054421 8.31676789 8.30076496 8.28753683 8.28387990 8.29433844 8.31718882 8.34332675 8.35311101 8.35311101 8.35311101 8.35311101 8.34332675 8.31718882 8.29433844 8.28387990 8.28753683 8.30076496 8.31676789 8.33054421 8.34021975 8.34612391 8.34938947 8.35108581 8.35194187 8.35237529 8.35260109 8.35272277 8.35278779 8.35281661 8.35281661 8.35278779 8.35272277 8.35260109 8.35237529 8.35194187 8.35108581 8.34938947 8.34612391 8.34021975 8.33054421 8.31676789 8.30076496 8.28753683 8.28387990 8.29433844 8.31718882 8.34332675 8.35311101 8.35311101 8.35311101 8.35311101 8.35311101 8.32185366 8.29757145 8.28529361 8.28669014 8.29805254 8.31314619 8.32694247 8.33718873 8.34382365 8.34774302 8.34993230 8.35112566 8.35177790 8.35214184 8.35234875 8.35246324 8.35251491 8.35251491 8.35246324 8.35234875 8.35214184 8.35177790 8.35112566 8.34993230 8.34774302 8.34382365 8.33718873 8.32694247 8.31314619 8.29805254 8.28669014 8.28529361 8.29757145 8.32185366 8.35311101 8.35311101 8.35311101 8.35311101 8.35311101 8.35311101 8.32736345 8.30388717 8.28906828 8.28630637 8.29381865 8.30664493 8.31994439 8.33090489 8.33875603 8.34389467 8.34707801 8.34899713 8.35014751 8.35084120 8.35125903 8.35149895 8.35160932 8.35160932 8.35149895 8.35125903 8.35084120 8.35014751 8.34899713 8.34707801 8.34389467 8.33875603 8.33090489 8.31994439 8.30664493 8.29381865 8.28630637 8.28906828 8.30388717 8.32736345 8.35311101 8.35311101 8.35311101 8.35311101 8.35311101 8.35311101 8.33653621 8.31483279 8.29699502 8.28868151 8.29039291 8.29902541 8.31042782 8.32140559 8.33036636 8.33697350 8.34154211 8.34458461 8.34657336 8.34785969 8.34867493 8.34915817 8.34938412 8.34938412 8.34915817 8.34867493 8.34785969 8.34657336 8.34458461 8.34154211 8.33697350 8.33036636 8.32140559 8.31042782 8.29902541 8.29039291 8.28868151 8.29699502 8.31483279 8.33653621 8.35311101 8.35311101 8.35311101 8.35311101 8.35311101 8.35311101 8.35311101 8.33161662 8.31027631 8.29609891 8.29078266 8.29321545 8.30056587 8.30982189 8.31882099 8.32644079 8.33235905 8.33671240 8.33980642 8.34194396 8.34336219 8.34422580 8.34463483 8.34463483 8.34422580 8.34336219 8.34194396 8.33980642 8.33671240 8.33235905 8.32644079 8.31882099 8.30982189 8.30056587 8.29321545 8.29078266 8.29609891 8.31027631 8.33161662 8.35311101 8.35311101 8.35311101 8.35311101 8.35311101 8.35311101 8.35311101 8.35311101 8.35311101 8.32764048 8.30953390 8.29763498 8.29277752 8.29397522 8.29909924 8.30604985 8.31320496 8.31960008 8.32485873 8.32894826 8.33196994 8.33406117 8.33536096 8.33598106 8.33598106 8.33536096 8.33406117 8.33196994 8.32894826 8.32485873 8.31960008 8.31320496 8.30604985 8.29909924 8.29397522 8.29277752 8.29763498 8.30953390 8.32764048 8.35311101 8.35311101 8.35311101 8.35311101 8.35311101 8.35311101 8.35311101 8.35311101 8.35311101 8.35311101 8.34232195 8.32809868 8.31197837 8.30046892 8.29473369 8.29374330 8.29624003 8.30066792 8.30571758 8.31059959 8.31487437 8.31828819 8.32073837 8.32226946 8.32299502 8.32299502 8.32226946 8.32073837 8.31828819 8.31487437 8.31059959 8.30571758 8.30066792 8.29624003 8.29374330 8.29473369 8.30046892 8.31197837 8.32809868 8.34232195 8.35311101 8.35311101 8.35311101 8.35311101 8.35311101 8.35311101 8.35311101 8.35311101 8.35311101 8.35311101 8.35311101 8.35311101 8.33250860 8.31638876 8.30536903 8.29797854 8.29467734 8.29440964 8.29598454 8.29862905 8.30164289 8.30435615 8.30632261 8.30747916 8.30799024 8.30799024 8.30747916 8.30632261 8.30435615 8.30164289 8.29862905 8.29598454 8.29440964 8.29467734 8.29797854 8.30536903 8.31638876 8.33250860 8.35311101 8.35311101 8.35311101 8.35311101 8.35311101 8.35311101 8.35311101 8.35311101 8.35311101 8.35311101 8.35311101 8.35311101 8.35311101 8.35311101 8.35311101 8.33646727 8.32534136 8.31302106 8.30483795 8.29955134 8.29645645 8.29549354 8.29596239 8.29679286 8.29715551 8.29704114 8.29685427 8.29685427 8.29704114 8.29715551 8.29679286 8.29596239 8.29549354 8.29645645 8.29955134 8.30483795 8.31302106 8.32534136 8.33646727 8.35311101 8.35311101 8.35311101 8.35311101 8.35311101 8.35311101 8.35311101 8.35311101 8.35311101 8.35311101 8.35311101 8.35311101 8.35311101 8.35311101 8.35311101 8.35311101 8.35311101 8.35311101 8.33515291 8.32576669 8.31698576 8.30975888 8.30552767 8.30350939 8.30215041 8.30007056 8.29787406 8.29657489 8.29657489 8.29787406 8.30007056 8.30215041 8.30350939 8.30552767 8.30975888 8.31698576 8.32576669 8.33515291 8.35311101 8.35311101 8.35311101 8.35311101 8.35311101 8.35311101 8.35311101 8.35311101 8.35311101 8.35311101 8.35311101 8.35311101 8.35311101 8.35311101 8.35311101 8.35311101 8.35311101 8.35311101 8.35311101 8.35311101 8.35311101 8.35311101 8.34088441 8.33184755 8.32703627 8.32450856 8.32220685 8.31705110 8.31231322 8.30986593 8.30986593 8.31231322 8.31705110 8.32220685 8.32450856 8.32703627 8.33184755 8.34088441 8.35311101 8.35311101 8.35311101 8.35311101 8.35311101 8.35311101 8.35311101 8.35311101 8.35311101 8.35311101 8.35311101 8.35311101 8.35311101 8.35311101 8.35311101 8.35311101 8.35311101 8.35311101 8.35311101 8.35311101 8.35311101 8.35311101 8.35311101 8.35311101 8.35311101 8.35311101 8.35311101 8.35311101 8.35311101 8.34146624 8.33453412 8.33178120 8.33178120 8.33453412 8.34146624 8.35311101 8.35311101 8.35311101 8.35311101 8.35311101 8.35311101 8.35311101 8.35311101 8.35311101 8.35311101 8.35311101 8.35311101 8.35311101 8.35311101 8.35311101 8.35311101 8.35311101 8.35311101 8.35311101 8.35311101 8.35311101 8.35311101 8.35311101 8.35311101 8.35311101 8.35311101 8.35311101 8.35311101 8.35311101 8.35311101 8.35311101 8.35311101 8.35311101 8.35311101 8.35311101 8.35311101 8.35311101 8.35311101 8.35311101 8.35311101 8.35311101 8.35311101 8.35311101 8.35311101 8.35311101 8.35311101 8.35311101 8.35311101 8.35311101 8.35311101 8.35311101 8.35311101 8.35311101 8.35311101 8.35311101 8.35311101 8.35311101 8.35311101 8.35311101 8.35311101 8.35311101 8.35311101 8.35311101 8.35311101 8.35311101 8.35311101 8.35311101 8.35311101 8.35311101 8.35311101 8.35311101 8.35311101 8.35311101 8.35311101 8.35311101 8.35311101 8.35311101 8.35311101 8.35311101 8.35311101 8.35311101 8.35311101 8.35311101 8.35311101 8.35311101 8.35311101 8.35311101 8.35311101 8.35311101 8.35311101 8.35311101 8.35311101 8.35311101 8.35311101 8.35311101 8.35311101 8.35311101 8.35311101 8.35311101 8.35311101 8.35311101 8.35311101 8.35311101 8.35311101 8.35311101 8.35311101 8.35311101 8.35311101 8.35311101 8.35311101 8.35311101 8.35311101 8.35311101 8.35311101 8.35311101 8.35311101 8.35311101 8.35311101 8.35311101 8.35311101 8.35311101 8.35311101 8.35311101 8.35311101 8.35311101 8.35311101 8.35311101 8.35311101 8.35311101 8.35311101 8.35311101 8.35311101 8.35311101 8.35311101 8.35311101 8.35311101 8.35311101 8.35311101 8.35311101 8.35311101 8.35311101 8.35311101 8.35311101 8.35311101 8.35311101 8.35311101 8.35311101 8.35311101 8.35311101 8.35311101 8.35311101 8.35311101 8.35311101 8.35311101 8.35311101 8.35311101 8.35311101 8.35311101 8.35311101 8.35311101 8.35311101 8.35311101 8.35311101 8.35311101 8.35311101 8.35311101 8.35311101 8.35311101 8.35311101 8.35311101 8.35311101 8.35311101 8.35311101 8.35311101 8.35311101 8.35311101 8.35311101 8.35311101 8.35311101 8.35311101 8.35311101 8.35311101 8.35311101 8.35311101 8.35311101 8.35311101 8.35311101 8.35311101 8.35311101 8.35311101 8.35311101 8.35311101 8.35311101 8.35311101 8.35311101 8.35311101 8.35311101 8.35311101 8.35311101 8.35311101 8.35311101 8.35311101 8.35311101 8.35311101 8.35311101 8.35311101 8.35311101 8.35311101 8.35311101 8.35311101 8.35311101 8.35311101 8.35311101 8.35311101 8.35311101 8.35311101 8.35311101 8.35311101 8.35311101 8.35311101 8.35311101 8.35311101 8.35311101 8.35311101 8.35311101 8.35311101 8.35311101 8.35311101 8.35311101 8.35311101 8.35311101 8.35311101 8.35311101 8.35311101 8.35311101 8.35311101 8.35311101 8.35311101 8.35311101 8.35311101 8.35311101 8.35311101 8.35311101 8.35311101 8.35311101 8.35311101 8.35311101 8.35311101 8.35311101 8.35311101 8.35311101 8.35311101 8.35311101 8.35311101 8.35311101 8.35311101 8.35311101 8.35311101 8.35311101 8.35311101 8.35311101 8.35311101 8.35311101 8.35311101 8.35311101 8.35311101 8.35311101 8.35311101 8.35311101 8.35311101 8.35311101 8.35311101 8.35311101 8.35311101 8.35311101 8.35311101 8.35311101 8.35311101 8.35311101 8.35311101 8.35311101 8.35311101 8.35311101 8.35311101 8.35311101 8.35311101 8.35311101 8.35311101 8.35311101 8.35311101 8.35311101 8.35311101 8.35311101 8.35311101 8.35311101 8.35311101 8.35311101 8.35311101 8.35311101 8.35311101 8.35311101 8.35311101 8.35311101 8.35311101 8.35311101 8.35311101 8.35311101 8.35311101 8.35311101 8.35311101 8.35311101 8.35311101 8.35311101 8.35311101 8.35311101 8.35311101 8.35311101 8.35311101 8.35311101 8.35311101 8.35311101 8.35311101 8.35311101 8.35311101 8.35311101 8.35311101 8.35311101 8.35311101 8.35311101 8.35311101 8.35311101 8.35311101 8.35311101 8.35311101 8.35311101 8.35311101 8.35311101 