# vtk DataFile Version 3.0
VTK - Matlab export
ASCII
DATASET STRUCTURED_POINTS
DIMENSIONS 40 40 1
SPACING 1 1 1
ORIGIN 0 0 0
POINT_DATA 1600
SCALARS Temperature float 1
LOOKUP_TABLE default
200.00000000 200.00000000 200.00000000 200.00000000 200.00000000 200.00000000 200.00000000 200.00000000 200.00000000 200.00000000 200.00000000 200.00000000 200.00000000 200.00000000 200.00000000 200.00000000 200.00000000 200.00000000 200.00000000 200.00000000 200.00000000 200.00000000 200.00000000 200.00000000 200.00000000 200.00000000 200.00000000 200.00000000 200.00000000 200.00000000 200.00000000 200.00000000 200.00000000 200.00000000 200.00000000 200.00000000 200.00000000 200.00000000 200.00000000 200.00000000 200.00000000 200.00000000 200.00000000 200.00000000 200.00000000 200.00000000 200.00000000 200.00000000 200.00000000 200.00000000 200.00000000 200.00000000 200.00000000 200.00000000 200.00000000 200.00000000 200.00000000 200.00000000 200.00000000 200.00000000 200.00000000 200.00000000 200.00000000 200.00000000 200.00000000 200.00000000 200.00000000 200.00000000 200.00000000 200.00000000 200.00000000 200.00000000 200.00000000 200.00000000 200.00000000 200.00000000 200.00000000 200.00000000 200.00000000 200.00000000 200.00000000 200.00000000 200.00000000 200.00000000 200.00000000 200.00000000 200.00000000 200.00000000 200.00000000 200.00000000 200.00000000 200.00000000 200.00000000 200.00000000 200.00000000 200.00000000 200.00000000 200.00000000 200.00000000 200.00000000 200.00000000 200.00000000 200.00000000 200.00000000 200.00000000 200.00000000 200.00000000 200.00000000 200.00000000 200.00000000 200.00000000 200.00000000 200.00000000 200.00000000 200.00000000 200.00000000 200.00000000 200.00000000 200.00000000 200.00000000 200.00000000 200.00000000 200.00000000 200.00000000 200.00000000 200.00000000 200.00000000 200.00000000 200.00000000 200.00000000 200.00000000 200.00000000 200.00000000 200.00000000 200.00000000 200.00000000 200.00000000 200.00000000 200.00000000 200.00000000 200.00000000 200.00000000 200.00000000 200.00000000 200.00000000 200.00000000 200.00000000 200.00000000 200.00000000 200.00000000 200.00000000 200.00000000 200.00000000 200.00000000 200.00000000 200.00000000 200.00000000 200.00000000 200.00000000 200.00000000 200.00000000 200.00000000 200.00000000 200.00000000 200.00000000 200.00000000 200.00000000 200.00000000 200.00000000 200.00000000 200.00000000 200.00000000 200.00000000 200.00000000 200.00000000 200.00000000 200.00000000 200.00000000 200.00000000 200.00000000 200.00000000 200.00000000 200.00000000 200.00000000 200.00000000 200.00000000 200.00000000 200.00000000 200.00000000 200.00000000 200.00000000 200.00000000 200.00000000 200.00000000 200.00000000 200.00000000 200.00000000 200.00000000 200.00000000 200.00000000 200.00000000 200.00000000 200.00000000 200.00000000 200.00000000 200.00000000 200.00000000 200.00000000 200.00000000 200.00000000 200.00000000 200.00000000 200.00000000 200.00000000 200.00000000 200.00000000 200.00000000 200.00000000 200.00000000 200.00000000 200.00000000 200.00000000 200.00000000 200.00000000 200.00000000 200.00000000 200.00000000 200.00000000 200.00000000 200.00000000 200.00000000 200.00000000 200.00000000 200.00000000 200.00000000 200.00000000 200.00000000 200.00000000 200.00000000 200.00000000 200.00000000 200.00000000 200.00000000 200.00000000 200.00000000 200.00000000 200.00000000 200.00000000 200.00000000 200.00000000 200.00000000 200.00000000 200.00000000 200.00000000 200.00000000 200.00000000 200.00000000 200.00000000 200.00000000 200.00000000 200.00000000 200.00000000 200.00000000 200.00000000 200.00000000 200.00000000 200.00000000 200.00000000 200.00000000 200.00000000 200.00000000 200.00000000 200.00000000 200.00000000 200.00000000 200.00000000 200.00000000 200.00000000 200.00000000 200.00000000 200.00000000 200.00000000 200.00000000 200.00000000 200.00000000 200.00000000 200.00000000 200.00000000 200.00000000 200.00000000 200.00000000 200.00000000 200.00000000 200.00000000 200.00000000 200.00000000 200.00000000 200.00000000 200.00000000 200.00000000 200.00000000 200.00000000 200.00000000 200.00000000 200.00000000 200.00000000 200.00000000 200.00000000 200.00000000 200.00000000 200.00000000 200.00000000 200.00000000 200.00000000 200.00000000 200.00000000 200.00000000 200.00000000 200.00000000 200.00000000 200.00000000 200.00000000 200.00000000 200.00000000 200.00000000 200.00000000 200.00000000 200.00000000 200.00000000 200.00000000 200.00000000 200.00000000 200.00000000 200.00000000 200.00000000 200.00000000 200.00000000 295.09582255 353.85653716 377.28655212 377.28655212 353.85653716 295.09582255 200.00000000 200.00000000 200.00000000 200.00000000 200.00000000 200.00000000 200.00000000 200.00000000 200.00000000 200.00000000 200.00000000 200.00000000 200.00000000 200.00000000 200.00000000 200.00000000 200.00000000 200.00000000 200.00000000 200.00000000 200.00000000 200.00000000 200.00000000 200.00000000 200.00000000 200.00000000 200.00000000 200.00000000 200.00000000 297.77657250 371.00252687 408.43836296 426.29059930 443.14404938 485.04552653 523.77706212 542.79834135 542.79834135 523.77706212 485.04552653 443.14404938 426.29059930 408.43836296 371.00252687 297.77657250 200.00000000 200.00000000 200.00000000 200.00000000 200.00000000 200.00000000 200.00000000 200.00000000 200.00000000 200.00000000 200.00000000 200.00000000 200.00000000 200.00000000 200.00000000 200.00000000 200.00000000 200.00000000 200.00000000 200.00000000 200.00000000 200.00000000 341.91861381 414.09669659 481.26329345 537.19009776 569.20520781 584.39233993 595.75890105 613.22541069 630.14736766 638.92551621 638.92551621 630.14736766 613.22541069 595.75890105 584.39233993 569.20520781 537.19009776 481.26329345 414.09669659 341.91861381 200.00000000 200.00000000 200.00000000 200.00000000 200.00000000 200.00000000 200.00000000 200.00000000 200.00000000 200.00000000 200.00000000 200.00000000 200.00000000 200.00000000 200.00000000 200.00000000 200.00000000 200.00000000 331.07991706 415.81026536 508.90597537 568.31685602 607.90117279 635.49159535 650.53501157 657.17168167 661.43029952 666.92569873 672.16319820 674.87063538 674.87063538 672.16319820 666.92569873 661.43029952 657.17168167 650.53501157 635.49159535 607.90117279 568.31685602 508.90597537 415.81026536 331.07991706 200.00000000 200.00000000 200.00000000 200.00000000 200.00000000 200.00000000 200.00000000 200.00000000 200.00000000 200.00000000 200.00000000 200.00000000 200.00000000 200.00000000 200.00000000 358.83857000 481.97299797 562.23011967 617.28388285 647.86271718 664.14485220 673.51738244 678.14159041 679.98007614 681.02580851 682.29593736 683.48141029 684.07523889 684.07523889 683.48141029 682.29593736 681.02580851 679.98007614 678.14159041 673.51738244 664.14485220 647.86271718 617.28388285 562.23011967 481.97299797 358.83857000 200.00000000 200.00000000 200.00000000 200.00000000 200.00000000 200.00000000 200.00000000 200.00000000 200.00000000 200.00000000 200.00000000 200.00000000 283.24602128 390.23367739 509.61387322 594.18788006 641.43604041 665.77028880 676.74272556 681.46374050 683.72472124 684.71563902 685.06285480 685.24120763 685.45994232 685.66026024 685.75526621 685.75526621 685.66026024 685.45994232 685.24120763 685.06285480 684.71563902 683.72472124 681.46374050 676.74272556 665.77028880 641.43604041 594.18788006 509.61387322 390.23367739 283.24602128 200.00000000 200.00000000 200.00000000 200.00000000 200.00000000 200.00000000 200.00000000 200.00000000 200.00000000 200.00000000 390.13105036 521.17392800 607.00139611 653.09141711 673.42678950 681.45346680 684.31460230 685.30009061 685.69350964 685.84508413 685.89076553 685.91230895 685.94073485 685.96619524 685.97730628 685.97730628 685.96619524 685.94073485 685.91230895 685.89076553 685.84508413 685.69350964 685.30009061 684.31460230 681.45346680 673.42678950 653.09141711 607.00139611 521.17392800 390.13105036 200.00000000 200.00000000 200.00000000 200.00000000 200.00000000 200.00000000 200.00000000 200.00000000 200.00000000 357.62499264 508.93228779 606.79897390 656.21409735 676.37705979 683.18933038 685.21823116 685.77152251 685.92037086 685.96976586 685.98634402 685.99049645 685.99233966 685.99514446 685.99756715 685.99850016 685.99850016 685.99756715 685.99514446 685.99233966 685.99049645 685.98634402 685.96976586 685.92037086 685.77152251 685.21823116 683.18933038 676.37705979 656.21409735 606.79897390 508.93228779 357.62499264 200.00000000 200.00000000 200.00000000 200.00000000 200.00000000 200.00000000 200.00000000 323.82684458 476.02699783 591.65208007 652.39450109 676.24837520 683.63080016 685.49322567 685.89722756 685.97731472 685.99343393 685.99786112 685.99913850 685.99938949 685.99949987 685.99970949 685.99987868 685.99993242 685.99993242 685.99987868 685.99970949 685.99949987 685.99938949 685.99913850 685.99786112 685.99343393 685.97731472 685.89722756 685.49322567 683.63080016 676.24837520 652.39450109 591.65208007 476.02699783 323.82684458 200.00000000 200.00000000 200.00000000 200.00000000 200.00000000 200.00000000 388.42044534 544.62480147 634.96756745 671.82130670 682.90458104 685.45818149 685.92076671 685.98937365 685.99837667 685.99961720 685.99989560 685.99996248 685.99997167 685.99997619 685.99998786 685.99999615 685.99999807 685.99999807 685.99999615 685.99998786 685.99997619 685.99997167 685.99996248 685.99989560 685.99961720 685.99837667 685.98937365 685.92076671 685.45818149 682.90458104 671.82130670 634.96756745 544.62480147 388.42044534 200.00000000 200.00000000 200.00000000 200.00000000 200.00000000 200.00000000 423.72710031 578.73102792 653.54971788 678.67126419 684.75184203 685.83921985 685.98421803 685.99875985 685.99989917 685.99998367 685.99999660 685.99999891 685.99999908 685.99999920 685.99999967 685.99999993 685.99999997 685.99999997 685.99999993 685.99999967 685.99999920 685.99999908 685.99999891 685.99999660 685.99998367 685.99989917 685.99875985 685.98421803 685.83921985 684.75184203 678.67126419 653.54971788 578.73102792 423.72710031 200.00000000 200.00000000 200.00000000 200.00000000 200.00000000 271.95050114 455.85014748 596.19266477 660.91782930 680.88232007 685.22901877 685.91436222 685.99305283 685.99959270 685.99998185 685.99999893 685.99999989 685.99999996 685.99999996 685.99999997 685.99999999 686.00000000 686.00000000 686.00000000 686.00000000 685.99999999 685.99999997 685.99999996 685.99999996 685.99999989 685.99999893 685.99998185 685.99959270 685.99305283 685.91436222 685.22901877 680.88232007 660.91782930 596.19266477 455.85014748 271.95050114 200.00000000 200.00000000 200.00000000 200.00000000 271.95050114 455.85014748 596.19266477 660.91782930 680.88232007 685.22901877 685.91436222 685.99305283 685.99959270 685.99998185 685.99999893 685.99999989 685.99999996 685.99999996 685.99999997 685.99999999 686.00000000 686.00000000 686.00000000 686.00000000 685.99999999 685.99999997 685.99999996 685.99999996 685.99999989 685.99999893 685.99998185 685.99959270 685.99305283 685.91436222 685.22901877 680.88232007 660.91782930 596.19266477 455.85014748 271.95050114 200.00000000 200.00000000 200.00000000 200.00000000 200.00000000 423.72710031 578.73102792 653.54971788 678.67126419 684.75184203 685.83921985 685.98421803 685.99875985 685.99989917 685.99998367 685.99999660 685.99999891 685.99999908 685.99999920 685.99999967 685.99999993 685.99999997 685.99999997 685.99999993 685.99999967 685.99999920 685.99999908 685.99999891 685.99999660 685.99998367 685.99989917 685.99875985 685.98421803 685.83921985 684.75184203 678.67126419 653.54971788 578.73102792 423.72710031 200.00000000 200.00000000 200.00000000 200.00000000 200.00000000 200.00000000 388.42044534 544.62480147 634.96756745 671.82130670 682.90458104 685.45818149 685.92076671 685.98937365 685.99837667 685.99961720 685.99989560 685.99996248 685.99997167 685.99997619 685.99998786 685.99999615 685.99999807 685.99999807 685.99999615 685.99998786 685.99997619 685.99997167 685.99996248 685.99989560 685.99961720 685.99837667 685.98937365 685.92076671 685.45818149 682.90458104 671.82130670 634.96756745 544.62480147 388.42044534 200.00000000 200.00000000 200.00000000 200.00000000 200.00000000 200.00000000 323.82684458 476.02699783 591.65208007 652.39450109 676.24837520 683.63080016 685.49322567 685.89722756 685.97731472 685.99343393 685.99786112 685.99913850 685.99938949 685.99949987 685.99970949 685.99987868 685.99993242 685.99993242 685.99987868 685.99970949 685.99949987 685.99938949 685.99913850 685.99786112 685.99343393 685.97731472 685.89722756 685.49322567 683.63080016 676.24837520 652.39450109 591.65208007 476.02699783 323.82684458 200.00000000 200.00000000 200.00000000 200.00000000 200.00000000 200.00000000 200.00000000 357.62499264 508.93228779 606.79897390 656.21409735 676.37705979 683.18933038 685.21823116 685.77152251 685.92037086 685.96976586 685.98634402 685.99049645 685.99233966 685.99514446 685.99756715 685.99850016 685.99850016 685.99756715 685.99514446 685.99233966 685.99049645 685.98634402 685.96976586 685.92037086 685.77152251 685.21823116 683.18933038 676.37705979 656.21409735 606.79897390 508.93228779 357.62499264 200.00000000 200.00000000 200.00000000 200.00000000 200.00000000 200.00000000 200.00000000 200.00000000 200.00000000 390.13105036 521.17392800 607.00139611 653.09141711 673.42678950 681.45346680 684.31460230 685.30009061 685.69350964 685.84508413 685.89076553 685.91230895 685.94073485 685.96619524 685.97730628 685.97730628 685.96619524 685.94073485 685.91230895 685.89076553 685.84508413 685.69350964 685.30009061 684.31460230 681.45346680 673.42678950 653.09141711 607.00139611 521.17392800 390.13105036 200.00000000 200.00000000 200.00000000 200.00000000 200.00000000 200.00000000 200.00000000 200.00000000 200.00000000 200.00000000 283.24602128 390.23367739 509.61387322 594.18788006 641.43604041 665.77028880 676.74272556 681.46374050 683.72472124 684.71563902 685.06285480 685.24120763 685.45994232 685.66026024 685.75526621 685.75526621 685.66026024 685.45994232 685.24120763 685.06285480 684.71563902 683.72472124 681.46374050 676.74272556 665.77028880 641.43604041 594.18788006 509.61387322 390.23367739 283.24602128 200.00000000 200.00000000 200.00000000 200.00000000 200.00000000 200.00000000 200.00000000 200.00000000 200.00000000 200.00000000 200.00000000 200.00000000 358.83857000 481.97299797 562.23011967 617.28388285 647.86271718 664.14485220 673.51738244 678.14159041 679.98007614 681.02580851 682.29593736 683.48141029 684.07523889 684.07523889 683.48141029 682.29593736 681.02580851 679.98007614 678.14159041 673.51738244 664.14485220 647.86271718 617.28388285 562.23011967 481.97299797 358.83857000 200.00000000 200.00000000 200.00000000 200.00000000 200.00000000 200.00000000 200.00000000 200.00000000 200.00000000 200.00000000 200.00000000 200.00000000 200.00000000 200.00000000 200.00000000 331.07991706 415.81026536 508.90597537 568.31685602 607.90117279 635.49159535 650.53501157 657.17168167 661.43029952 666.92569873 672.16319820 674.87063538 674.87063538 672.16319820 666.92569873 661.43029952 657.17168167 650.53501157 635.49159535 607.90117279 568.31685602 508.90597537 415.81026536 331.07991706 200.00000000 200.00000000 200.00000000 200.00000000 200.00000000 200.00000000 200.00000000 200.00000000 200.00000000 200.00000000 200.00000000 200.00000000 200.00000000 200.00000000 200.00000000 200.00000000 200.00000000 200.00000000 341.91861381 414.09669659 481.26329345 537.19009776 569.20520781 584.39233993 595.75890105 613.22541069 630.14736766 638.92551621 638.92551621 630.14736766 613.22541069 595.75890105 584.39233993 569.20520781 537.19009776 481.26329345 414.09669659 341.91861381 200.00000000 200.00000000 200.00000000 200.00000000 200.00000000 200.00000000 200.00000000 200.00000000 200.00000000 200.00000000 200.00000000 200.00000000 200.00000000 200.00000000 200.00000000 200.00000000 200.00000000 200.00000000 200.00000000 200.00000000 200.00000000 200.00000000 297.77657250 371.00252687 408.43836296 426.29059930 443.14404938 485.04552653 523.77706212 542.79834135 542.79834135 523.77706212 485.04552653 443.14404938 426.29059930 408.43836296 371.00252687 297.77657250 200.00000000 200.00000000 200.00000000 200.00000000 200.00000000 200.00000000 200.00000000 200.00000000 200.00000000 200.00000000 200.00000000 200.00000000 200.00000000 200.00000000 200.00000000 200.00000000 200.00000000 200.00000000 200.00000000 200.00000000 200.00000000 200.00000000 200.00000000 200.00000000 200.00000000 200.00000000 200.00000000 200.00000000 200.00000000 295.09582255 353.85653716 377.28655212 377.28655212 353.85653716 295.09582255 200.00000000 200.00000000 200.00000000 200.00000000 200.00000000 200.00000000 200.00000000 200.00000000 200.00000000 200.00000000 200.00000000 200.00000000 200.00000000 200.00000000 200.00000000 200.00000000 200.00000000 200.00000000 200.00000000 200.00000000 200.00000000 200.00000000 200.00000000 200.00000000 200.00000000 200.00000000 200.00000000 200.00000000 200.00000000 200.00000000 200.00000000 200.00000000 200.00000000 200.00000000 200.00000000 200.00000000 200.00000000 200.00000000 200.00000000 200.00000000 200.00000000 200.00000000 200.00000000 200.00000000 200.00000000 200.00000000 200.00000000 200.00000000 200.00000000 200.00000000 200.00000000 200.00000000 200.00000000 200.00000000 200.00000000 200.00000000 200.00000000 200.00000000 200.00000000 200.00000000 200.00000000 200.00000000 200.00000000 200.00000000 200.00000000 200.00000000 200.00000000 200.00000000 200.00000000 200.00000000 200.00000000 200.00000000 200.00000000 200.00000000 200.00000000 200.00000000 200.00000000 200.00000000 200.00000000 200.00000000 200.00000000 200.00000000 200.00000000 200.00000000 200.00000000 200.00000000 200.00000000 200.00000000 200.00000000 200.00000000 200.00000000 200.00000000 200.00000000 200.00000000 200.00000000 200.00000000 200.00000000 200.00000000 200.00000000 200.00000000 200.00000000 200.00000000 200.00000000 200.00000000 200.00000000 200.00000000 200.00000000 200.00000000 200.00000000 200.00000000 200.00000000 200.00000000 200.00000000 200.00000000 200.00000000 200.00000000 200.00000000 200.00000000 200.00000000 200.00000000 200.00000000 200.00000000 200.00000000 200.00000000 200.00000000 200.00000000 200.00000000 200.00000000 200.00000000 200.00000000 200.00000000 200.00000000 200.00000000 200.00000000 200.00000000 200.00000000 200.00000000 200.00000000 200.00000000 200.00000000 200.00000000 200.00000000 200.00000000 200.00000000 200.00000000 200.00000000 200.00000000 200.00000000 200.00000000 200.00000000 200.00000000 200.00000000 200.00000000 200.00000000 200.00000000 200.00000000 200.00000000 200.00000000 200.00000000 200.00000000 200.00000000 200.00000000 200.00000000 200.00000000 200.00000000 200.00000000 200.00000000 200.00000000 200.00000000 200.00000000 200.00000000 200.00000000 200.00000000 200.00000000 200.00000000 200.00000000 200.00000000 200.00000000 200.00000000 200.00000000 200.00000000 200.00000000 200.00000000 200.00000000 200.00000000 200.00000000 200.00000000 200.00000000 200.00000000 200.00000000 200.00000000 200.00000000 200.00000000 200.00000000 200.00000000 200.00000000 200.00000000 200.00000000 200.00000000 200.00000000 200.00000000 200.00000000 200.00000000 200.00000000 200.00000000 200.00000000 200.00000000 200.00000000 200.00000000 200.00000000 200.00000000 200.00000000 200.00000000 200.00000000 200.00000000 200.00000000 200.00000000 200.00000000 200.00000000 200.00000000 200.00000000 200.00000000 200.00000000 200.00000000 200.00000000 200.00000000 200.00000000 200.00000000 200.00000000 200.00000000 200.00000000 200.00000000 200.00000000 200.00000000 200.00000000 200.00000000 200.00000000 200.00000000 200.00000000 200.00000000 200.00000000 200.00000000 200.00000000 200.00000000 200.00000000 200.00000000 200.00000000 200.00000000 200.00000000 200.00000000 200.00000000 200.00000000 200.00000000 200.00000000 200.00000000 200.00000000 200.00000000 200.00000000 200.00000000 200.00000000 200.00000000 200.00000000 200.00000000 200.00000000 200.00000000 200.00000000 200.00000000 200.00000000 200.00000000 200.00000000 200.00000000 200.00000000 200.00000000 200.00000000 200.00000000 200.00000000 200.00000000 200.00000000 200.00000000 200.00000000 200.00000000 200.00000000 200.00000000 200.00000000 200.00000000 200.00000000 200.00000000 200.00000000 200.00000000 200.00000000 200.00000000 200.00000000 200.00000000 200.00000000 200.00000000 200.00000000 200.00000000 200.00000000 200.00000000 200.00000000 200.00000000 200.00000000 200.00000000 200.00000000 200.00000000 200.00000000 200.00000000 200.00000000 200.00000000 200.00000000 200.00000000 200.00000000 200.00000000 200.00000000 200.00000000 200.00000000 200.00000000 200.00000000 200.00000000 200.00000000 200.00000000 200.00000000 200.00000000 200.00000000 200.00000000 200.00000000 200.00000000 200.00000000 200.00000000 200.00000000 200.00000000 200.00000000 200.00000000 200.00000000 200.00000000 200.00000000 200.00000000 