# vtk DataFile Version 3.0
VTK - Matlab export
ASCII
DATASET STRUCTURED_POINTS
DIMENSIONS 40 40 1
SPACING 1 1 1
ORIGIN 0 0 0
POINT_DATA 1600
SCALARS Proofstrength float 1
LOOKUP_TABLE default
140.71398941 140.71398941 140.71398941 140.71398941 140.71398941 140.71398941 140.71398941 140.71398941 140.71398941 140.71398941 140.71398941 140.71398941 140.71398941 140.71398941 140.71398941 140.71398941 140.71398941 140.71398941 140.71398941 140.71398941 140.71398941 140.71398941 140.71398941 140.71398941 140.71398941 140.71398941 140.71398941 140.71398941 140.71398941 140.71398941 140.71398941 140.71398941 140.71398941 140.71398941 140.71398941 140.71398941 140.71398941 140.71398941 140.71398941 140.71398941 140.71398941 140.71398941 140.71398941 140.71398941 140.71398941 140.71398941 140.71398941 140.71398941 140.71398941 140.71398941 140.71398941 140.71398941 140.71398941 140.71398941 140.71398941 140.71398941 140.71398941 140.71398941 140.71398941 140.71398941 140.71398941 140.71398941 140.71398941 140.71398941 140.71398941 140.71398941 140.71398941 140.71398941 140.71398941 140.71398941 140.71398941 140.71398941 140.71398941 140.71398941 140.71398941 140.71398941 140.71398941 140.71398941 140.71398941 140.71398941 140.71398941 140.71398941 140.71398941 140.71398941 140.71398941 140.71398941 140.71398941 140.71398941 140.71398941 140.71398941 140.71398941 140.71398941 140.71398941 140.71398941 140.71398941 140.71398941 140.71398941 140.71398941 140.71398941 140.71398941 140.71398941 140.71398941 140.71398941 140.71398941 140.71398941 140.71398941 140.71398941 140.71398941 140.71398941 140.71398941 140.71398941 140.71398941 140.71398941 140.71398941 140.71398941 140.71398941 140.71398941 140.71398941 140.71398941 140.71398941 140.71398941 140.71398941 140.71398941 140.71398941 140.71398941 140.71398941 140.71398941 140.71398941 140.71398941 140.71398941 140.71398941 140.71398941 140.71398941 140.71398941 140.71398941 140.71398941 140.71398941 140.71398941 140.71398941 140.71398941 140.71398941 140.71398941 140.71398941 140.71398941 140.71398941 140.71398941 140.71398941 140.71398941 140.71398941 140.71398941 140.71398941 140.71398941 140.71398941 140.71398941 140.71398941 140.71398941 140.71398941 140.71398941 140.71398941 140.71398941 140.71398941 140.71398941 140.71398941 140.71398941 140.71398941 140.71398941 140.71398941 140.71398941 140.71398941 140.71398941 140.71398941 140.71398941 140.71398941 140.71398941 140.71398941 140.71398941 140.71398941 140.71398941 140.71398941 140.71398941 140.71398941 140.71398941 140.71398941 140.71398941 140.71398941 140.71398941 140.71398941 140.71398941 140.71398941 140.71398941 140.71398941 140.71398941 140.71398941 140.71398941 140.71398941 140.71398941 140.71398941 140.71398941 140.71398941 140.71398941 140.71398941 140.71398941 140.71398941 140.71398941 140.71398941 140.71398941 140.71398941 140.71398941 140.71398941 140.71398941 140.71398941 140.71398941 140.71398941 140.71398941 140.71398941 140.71398941 140.71398941 140.71398941 140.71398941 140.71398941 140.71398941 140.71398941 140.71398941 140.71398941 140.71398941 140.71398941 140.71398941 140.71398941 140.71398941 140.71398941 140.71398941 140.71398941 140.71398941 140.71398941 140.71398941 140.71398941 140.71398941 140.71398941 140.71398941 140.71398941 140.71398941 140.71398941 140.71398941 140.71398941 140.71398941 140.71398941 140.71398941 140.71398941 140.71398941 140.71398941 140.71398941 140.71398941 140.71398941 140.71398941 140.71398941 140.71398941 140.71398941 140.71398941 140.71398941 140.71398941 140.71398941 140.71398941 140.71398941 140.71398941 140.71398941 140.71398941 140.71398941 140.71398941 140.71398941 140.71398941 140.71398941 140.71398941 140.71398941 140.71398941 140.71398941 140.71398941 140.71398941 140.71398941 140.71398941 140.71398941 140.71398941 140.71398941 140.71398941 140.71398941 140.71398941 140.71398941 140.71398941 140.71398941 140.71398941 140.71398941 140.71398941 140.71398941 140.71398941 140.71398941 140.71398941 140.71398941 140.71398941 140.71398941 140.71398941 140.71398941 140.71398941 140.71398941 140.71398941 140.71398941 140.71398941 140.71398941 140.71398941 140.71398941 140.71398941 140.71398941 140.71398941 140.71398941 140.71398941 140.71398941 140.71398941 140.71398941 140.71398941 140.71398941 140.71398941 140.71398941 140.71398941 140.71398941 140.71398941 140.71398941 140.71398941 140.71398941 140.71398941 140.71398941 140.71398941 140.71398941 140.71398941 140.71398941 140.71398941 140.71398941 140.71398941 140.71398941 140.71398941 140.71868454 140.72127208 140.72223390 140.72223390 140.72127208 140.71868454 140.71398941 140.71398941 140.71398941 140.71398941 140.71398941 140.71398941 140.71398941 140.71398941 140.71398941 140.71398941 140.71398941 140.71398941 140.71398941 140.71398941 140.71398941 140.71398941 140.71398941 140.71398941 140.71398941 140.71398941 140.71398941 140.71398941 140.71398941 140.71398941 140.71398941 140.71398941 140.71398941 140.71398941 140.71398941 140.71894729 140.72264414 140.72481385 140.72618847 140.72742793 140.72959721 140.73139931 140.73227635 140.73227635 140.73139931 140.72959721 140.72742793 140.72618847 140.72481385 140.72264414 140.71894729 140.71398941 140.71398941 140.71398941 140.71398941 140.71398941 140.71398941 140.71398941 140.71398941 140.71398941 140.71398941 140.71398941 140.71398941 140.71398941 140.71398941 140.71398941 140.71398941 140.71398941 140.71398941 140.71398941 140.71398941 140.71398941 140.71398941 140.72135797 140.72544382 140.72948800 140.73307802 140.73565990 140.73743997 140.73883251 140.74021514 140.74134530 140.74194431 140.74194431 140.74134530 140.74021514 140.73883251 140.73743997 140.73565990 140.73307802 140.72948800 140.72544382 140.72135797 140.71398941 140.71398941 140.71398941 140.71398941 140.71398941 140.71398941 140.71398941 140.71398941 140.71398941 140.71398941 140.71398941 140.71398941 140.71398941 140.71398941 140.71398941 140.71398941 140.71398941 140.71398941 140.72089807 140.72583389 140.73159480 140.73614471 140.73985242 140.74281463 140.74493456 140.74635677 140.74735156 140.74814171 140.74873520 140.74905166 140.74905166 140.74873520 140.74814171 140.74735156 140.74635677 140.74493456 140.74281463 140.73985242 140.73614471 140.73159480 140.72583389 140.72089807 140.71398941 140.71398941 140.71398941 140.71398941 140.71398941 140.71398941 140.71398941 140.71398941 140.71398941 140.71398941 140.71398941 140.71398941 140.71398941 140.71398941 140.71398941 140.72277312 140.73016091 140.73619517 140.74137566 140.74532318 140.74814993 140.75005248 140.75118746 140.75176734 140.75203136 140.75216717 140.75225460 140.75230125 140.75230125 140.75225460 140.75216717 140.75203136 140.75176734 140.75118746 140.75005248 140.74814993 140.74532318 140.74137566 140.73619517 140.73016091 140.72277312 140.71398941 140.71398941 140.71398941 140.71398941 140.71398941 140.71398941 140.71398941 140.71398941 140.71398941 140.71398941 140.71398941 140.71398941 140.71838806 140.72465119 140.73254727 140.73961342 140.74522208 140.74933739 140.75198036 140.75338372 140.75386443 140.75372408 140.75323944 140.75264657 140.75211476 140.75173502 140.75154102 140.75154102 140.75173502 140.75211476 140.75264657 140.75323944 140.75372408 140.75386443 140.75338372 140.75198036 140.74933739 140.74522208 140.73961342 140.73254727 140.72465119 140.71838806 140.71398941 140.71398941 140.71398941 140.71398941 140.71398941 140.71398941 140.71398941 140.71398941 140.71398941 140.71398941 140.72466194 140.73356529 140.74151276 140.74785620 140.75225518 140.75475681 140.75563487 140.75530839 140.75422362 140.75276789 140.75124272 140.74986274 140.74876231 140.74800977 140.74763050 140.74763050 140.74800977 140.74876231 140.74986274 140.75124272 140.75276789 140.75422362 140.75530839 140.75563487 140.75475681 140.75225518 140.74785620 140.74151276 140.73356529 140.72466194 140.71398941 140.71398941 140.71398941 140.71398941 140.71398941 140.71398941 140.71398941 140.71398941 140.71398941 140.72264359 140.73255702 140.74166280 140.74908242 140.75422714 140.75695366 140.75753208 140.75648406 140.75441474 140.75187473 140.74928547 140.74692780 140.74496501 140.74347554 140.74248466 140.74199201 140.74199201 140.74248466 140.74347554 140.74496501 140.74692780 140.74928547 140.75187473 140.75441474 140.75648406 140.75753208 140.75695366 140.75422714 140.74908242 140.74166280 140.73255702 140.72264359 140.71398941 140.71398941 140.71398941 140.71398941 140.71398941 140.71398941 140.71398941 140.72028566 140.72955652 140.73953311 140.74836426 140.75489116 140.75857515 140.75948030 140.75813359 140.75529144 140.75171361 140.74801257 140.74459819 140.74169539 140.73939533 140.73770960 140.73661337 140.73607521 140.73607521 140.73661337 140.73770960 140.73939533 140.74169539 140.74459819 140.74801257 140.75171361 140.75529144 140.75813359 140.75948030 140.75857515 140.75489116 140.74836426 140.73953311 140.72955652 140.72028566 140.71398941 140.71398941 140.71398941 140.71398941 140.71398941 140.71398941 140.72387259 140.73455189 140.74486386 140.75333344 140.75889395 140.76115268 140.76039820 140.75740050 140.75311174 140.74840044 140.74390038 140.73998083 140.73679598 140.73436202 140.73262707 140.73152077 140.73098397 140.73098397 140.73152077 140.73262707 140.73436202 140.73679598 140.73998083 140.74390038 140.74840044 140.75311174 140.75740050 140.76039820 140.76115268 140.75889395 140.75333344 140.74486386 140.73455189 140.72387259 140.71398941 140.71398941 140.71398941 140.71398941 140.71398941 140.71398941 140.72617051 140.73785873 140.74841042 140.75654255 140.76130172 140.76244273 140.76044367 140.75626181 140.75098649 140.74554994 140.74058269 140.73640809 140.73311770 140.73066743 140.72895729 140.72788371 140.72736775 140.72736775 140.72788371 140.72895729 140.73066743 140.73311770 140.73640809 140.74058269 140.74554994 140.75098649 140.75626181 140.76044367 140.76244273 140.76130172 140.75654255 140.74841042 140.73785873 140.72617051 140.71398941 140.71398941 140.71398941 140.71398941 140.71398941 140.71765395 140.72805195 140.73965771 140.75020021 140.75810454 140.76240743 140.76293683 140.76027533 140.75548087 140.74971236 140.74392981 140.73875574 140.73448407 140.73117021 140.72873686 140.72705847 140.72601426 140.72551524 140.72551524 140.72601426 140.72705847 140.72873686 140.73117021 140.73448407 140.73875574 140.74392981 140.74971236 140.75548087 140.76027533 140.76293683 140.76240743 140.75810454 140.75020021 140.73965771 140.72805195 140.71765395 140.71398941 140.71398941 140.71398941 140.71398941 140.71765395 140.72805195 140.73965771 140.75020021 140.75810454 140.76240743 140.76293683 140.76027533 140.75548087 140.74971236 140.74392981 140.73875574 140.73448407 140.73117021 140.72873686 140.72705847 140.72601426 140.72551524 140.72551524 140.72601426 140.72705847 140.72873686 140.73117021 140.73448407 140.73875574 140.74392981 140.74971236 140.75548087 140.76027533 140.76293683 140.76240743 140.75810454 140.75020021 140.73965771 140.72805195 140.71765395 140.71398941 140.71398941 140.71398941 140.71398941 140.71398941 140.72617051 140.73785873 140.74841042 140.75654255 140.76130172 140.76244273 140.76044367 140.75626181 140.75098649 140.74554994 140.74058269 140.73640809 140.73311770 140.73066743 140.72895729 140.72788371 140.72736775 140.72736775 140.72788371 140.72895729 140.73066743 140.73311770 140.73640809 140.74058269 140.74554994 140.75098649 140.75626181 140.76044367 140.76244273 140.76130172 140.75654255 140.74841042 140.73785873 140.72617051 140.71398941 140.71398941 140.71398941 140.71398941 140.71398941 140.71398941 140.72387259 140.73455189 140.74486386 140.75333344 140.75889395 140.76115268 140.76039820 140.75740050 140.75311174 140.74840044 140.74390038 140.73998083 140.73679598 140.73436202 140.73262707 140.73152077 140.73098397 140.73098397 140.73152077 140.73262707 140.73436202 140.73679598 140.73998083 140.74390038 140.74840044 140.75311174 140.75740050 140.76039820 140.76115268 140.75889395 140.75333344 140.74486386 140.73455189 140.72387259 140.71398941 140.71398941 140.71398941 140.71398941 140.71398941 140.71398941 140.72028566 140.72955652 140.73953311 140.74836426 140.75489116 140.75857515 140.75948030 140.75813359 140.75529144 140.75171361 140.74801257 140.74459819 140.74169539 140.73939533 140.73770960 140.73661337 140.73607521 140.73607521 140.73661337 140.73770960 140.73939533 140.74169539 140.74459819 140.74801257 140.75171361 140.75529144 140.75813359 140.75948030 140.75857515 140.75489116 140.74836426 140.73953311 140.72955652 140.72028566 140.71398941 140.71398941 140.71398941 140.71398941 140.71398941 140.71398941 140.71398941 140.72264359 140.73255702 140.74166280 140.74908242 140.75422714 140.75695366 140.75753208 140.75648406 140.75441474 140.75187473 140.74928547 140.74692780 140.74496501 140.74347554 140.74248466 140.74199201 140.74199201 140.74248466 140.74347554 140.74496501 140.74692780 140.74928547 140.75187473 140.75441474 140.75648406 140.75753208 140.75695366 140.75422714 140.74908242 140.74166280 140.73255702 140.72264359 140.71398941 140.71398941 140.71398941 140.71398941 140.71398941 140.71398941 140.71398941 140.71398941 140.71398941 140.72466194 140.73356529 140.74151276 140.74785620 140.75225518 140.75475681 140.75563487 140.75530839 140.75422362 140.75276789 140.75124272 140.74986274 140.74876231 140.74800977 140.74763050 140.74763050 140.74800977 140.74876231 140.74986274 140.75124272 140.75276789 140.75422362 140.75530839 140.75563487 140.75475681 140.75225518 140.74785620 140.74151276 140.73356529 140.72466194 140.71398941 140.71398941 140.71398941 140.71398941 140.71398941 140.71398941 140.71398941 140.71398941 140.71398941 140.71398941 140.71838806 140.72465119 140.73254727 140.73961342 140.74522208 140.74933739 140.75198036 140.75338372 140.75386443 140.75372408 140.75323944 140.75264657 140.75211476 140.75173502 140.75154102 140.75154102 140.75173502 140.75211476 140.75264657 140.75323944 140.75372408 140.75386443 140.75338372 140.75198036 140.74933739 140.74522208 140.73961342 140.73254727 140.72465119 140.71838806 140.71398941 140.71398941 140.71398941 140.71398941 140.71398941 140.71398941 140.71398941 140.71398941 140.71398941 140.71398941 140.71398941 140.71398941 140.72277312 140.73016091 140.73619517 140.74137566 140.74532318 140.74814993 140.75005248 140.75118746 140.75176734 140.75203136 140.75216717 140.75225460 140.75230125 140.75230125 140.75225460 140.75216717 140.75203136 140.75176734 140.75118746 140.75005248 140.74814993 140.74532318 140.74137566 140.73619517 140.73016091 140.72277312 140.71398941 140.71398941 140.71398941 140.71398941 140.71398941 140.71398941 140.71398941 140.71398941 140.71398941 140.71398941 140.71398941 140.71398941 140.71398941 140.71398941 140.71398941 140.72089807 140.72583389 140.73159480 140.73614471 140.73985242 140.74281463 140.74493456 140.74635677 140.74735156 140.74814171 140.74873520 140.74905166 140.74905166 140.74873520 140.74814171 140.74735156 140.74635677 140.74493456 140.74281463 140.73985242 140.73614471 140.73159480 140.72583389 140.72089807 140.71398941 140.71398941 140.71398941 140.71398941 140.71398941 140.71398941 140.71398941 140.71398941 140.71398941 140.71398941 140.71398941 140.71398941 140.71398941 140.71398941 140.71398941 140.71398941 140.71398941 140.71398941 140.72135797 140.72544382 140.72948800 140.73307802 140.73565990 140.73743997 140.73883251 140.74021514 140.74134530 140.74194431 140.74194431 140.74134530 140.74021514 140.73883251 140.73743997 140.73565990 140.73307802 140.72948800 140.72544382 140.72135797 140.71398941 140.71398941 140.71398941 140.71398941 140.71398941 140.71398941 140.71398941 140.71398941 140.71398941 140.71398941 140.71398941 140.71398941 140.71398941 140.71398941 140.71398941 140.71398941 140.71398941 140.71398941 140.71398941 140.71398941 140.71398941 140.71398941 140.71894729 140.72264414 140.72481385 140.72618847 140.72742793 140.72959721 140.73139931 140.73227635 140.73227635 140.73139931 140.72959721 140.72742793 140.72618847 140.72481385 140.72264414 140.71894729 140.71398941 140.71398941 140.71398941 140.71398941 140.71398941 140.71398941 140.71398941 140.71398941 140.71398941 140.71398941 140.71398941 140.71398941 140.71398941 140.71398941 140.71398941 140.71398941 140.71398941 140.71398941 140.71398941 140.71398941 140.71398941 140.71398941 140.71398941 140.71398941 140.71398941 140.71398941 140.71398941 140.71398941 140.71398941 140.71868454 140.72127208 140.72223390 140.72223390 140.72127208 140.71868454 140.71398941 140.71398941 140.71398941 140.71398941 140.71398941 140.71398941 140.71398941 140.71398941 140.71398941 140.71398941 140.71398941 140.71398941 140.71398941 140.71398941 140.71398941 140.71398941 140.71398941 140.71398941 140.71398941 140.71398941 140.71398941 140.71398941 140.71398941 140.71398941 140.71398941 140.71398941 140.71398941 140.71398941 140.71398941 140.71398941 140.71398941 140.71398941 140.71398941 140.71398941 140.71398941 140.71398941 140.71398941 140.71398941 140.71398941 140.71398941 140.71398941 140.71398941 140.71398941 140.71398941 140.71398941 140.71398941 140.71398941 140.71398941 140.71398941 140.71398941 140.71398941 140.71398941 140.71398941 140.71398941 140.71398941 140.71398941 140.71398941 140.71398941 140.71398941 140.71398941 140.71398941 140.71398941 140.71398941 140.71398941 140.71398941 140.71398941 140.71398941 140.71398941 140.71398941 140.71398941 140.71398941 140.71398941 140.71398941 140.71398941 140.71398941 140.71398941 140.71398941 140.71398941 140.71398941 140.71398941 140.71398941 140.71398941 140.71398941 140.71398941 140.71398941 140.71398941 140.71398941 140.71398941 140.71398941 140.71398941 140.71398941 140.71398941 140.71398941 140.71398941 140.71398941 140.71398941 140.71398941 140.71398941 140.71398941 140.71398941 140.71398941 140.71398941 140.71398941 140.71398941 140.71398941 140.71398941 140.71398941 140.71398941 140.71398941 140.71398941 140.71398941 140.71398941 140.71398941 140.71398941 140.71398941 140.71398941 140.71398941 140.71398941 140.71398941 140.71398941 140.71398941 140.71398941 140.71398941 140.71398941 140.71398941 140.71398941 140.71398941 140.71398941 140.71398941 140.71398941 140.71398941 140.71398941 140.71398941 140.71398941 140.71398941 140.71398941 140.71398941 140.71398941 140.71398941 140.71398941 140.71398941 140.71398941 140.71398941 140.71398941 140.71398941 140.71398941 140.71398941 140.71398941 140.71398941 140.71398941 140.71398941 140.71398941 140.71398941 140.71398941 140.71398941 140.71398941 140.71398941 140.71398941 140.71398941 140.71398941 140.71398941 140.71398941 140.71398941 140.71398941 140.71398941 140.71398941 140.71398941 140.71398941 140.71398941 140.71398941 140.71398941 140.71398941 140.71398941 140.71398941 140.71398941 140.71398941 140.71398941 140.71398941 140.71398941 140.71398941 140.71398941 140.71398941 140.71398941 140.71398941 140.71398941 140.71398941 140.71398941 140.71398941 140.71398941 140.71398941 140.71398941 140.71398941 140.71398941 140.71398941 140.71398941 140.71398941 140.71398941 140.71398941 140.71398941 140.71398941 140.71398941 140.71398941 140.71398941 140.71398941 140.71398941 140.71398941 140.71398941 140.71398941 140.71398941 140.71398941 140.71398941 140.71398941 140.71398941 140.71398941 140.71398941 140.71398941 140.71398941 140.71398941 140.71398941 140.71398941 140.71398941 140.71398941 140.71398941 140.71398941 140.71398941 140.71398941 140.71398941 140.71398941 140.71398941 140.71398941 140.71398941 140.71398941 140.71398941 140.71398941 140.71398941 140.71398941 140.71398941 140.71398941 140.71398941 140.71398941 140.71398941 140.71398941 140.71398941 140.71398941 140.71398941 140.71398941 140.71398941 140.71398941 140.71398941 140.71398941 140.71398941 140.71398941 140.71398941 140.71398941 140.71398941 140.71398941 140.71398941 140.71398941 140.71398941 140.71398941 140.71398941 140.71398941 140.71398941 140.71398941 140.71398941 140.71398941 140.71398941 140.71398941 140.71398941 140.71398941 140.71398941 140.71398941 140.71398941 140.71398941 140.71398941 140.71398941 140.71398941 140.71398941 140.71398941 140.71398941 140.71398941 140.71398941 140.71398941 140.71398941 140.71398941 140.71398941 140.71398941 140.71398941 140.71398941 140.71398941 140.71398941 140.71398941 140.71398941 140.71398941 140.71398941 140.71398941 140.71398941 140.71398941 140.71398941 140.71398941 140.71398941 140.71398941 140.71398941 140.71398941 140.71398941 140.71398941 140.71398941 140.71398941 140.71398941 140.71398941 140.71398941 140.71398941 140.71398941 140.71398941 140.71398941 140.71398941 140.71398941 140.71398941 140.71398941 140.71398941 140.71398941 140.71398941 140.71398941 140.71398941 140.71398941 140.71398941 140.71398941 140.71398941 140.71398941 140.71398941 140.71398941 140.71398941 140.71398941 140.71398941 140.71398941 140.71398941 140.71398941 