# vtk DataFile Version 3.0
VTK - Matlab export
ASCII
DATASET STRUCTURED_POINTS
DIMENSIONS 40 40 1
SPACING 1 1 1
ORIGIN 0 0 0
POINT_DATA 1600
SCALARS Proofstrength float 1
LOOKUP_TABLE default
140.71398941 140.71398941 140.71398941 140.71398941 140.71398941 140.71398941 140.71398941 140.71398941 140.71398941 140.71398941 140.71398941 140.71398941 140.71398941 140.71398941 140.71398941 140.71398941 140.71398941 140.71398941 140.71398941 140.71398941 140.71398941 140.71398941 140.71398941 140.71398941 140.71398941 140.71398941 140.71398941 140.71398941 140.71398941 140.71398941 140.71398941 140.71398941 140.71398941 140.71398941 140.71398941 140.71398941 140.71398941 140.71398941 140.71398941 140.71398941 140.71398941 140.71398941 140.71398941 140.71398941 140.71398941 140.71398941 140.71398941 140.71398941 140.71398941 140.71398941 140.71398941 140.71398941 140.71398941 140.71398941 140.71398941 140.71398941 140.71398941 140.71398941 140.71398941 140.71398941 140.71398941 140.71398941 140.71398941 140.71398941 140.71398941 140.71398941 140.71398941 140.71398941 140.71398941 140.71398941 140.71398941 140.71398941 140.71398941 140.71398941 140.71398941 140.71398941 140.71398941 140.71398941 140.71398941 140.71398941 140.71398941 140.71398941 140.71398941 140.71398941 140.71398941 140.71398941 140.71398941 140.71398941 140.71398941 140.71398941 140.71398941 140.71398941 140.71398941 140.71398941 140.71398941 140.71398941 140.71398941 140.71398941 140.71398941 140.71398941 140.71398941 140.71398941 140.71398941 140.71398941 140.71398941 140.71398941 140.71398941 140.71398941 140.71398941 140.71398941 140.71398941 140.71398941 140.71398941 140.71398941 140.71398941 140.71398941 140.71398941 140.71398941 140.71398941 140.71398941 140.71398941 140.71398941 140.71398941 140.71398941 140.71398941 140.71398941 140.71398941 140.71398941 140.71398941 140.71398941 140.71398941 140.71398941 140.71398941 140.71398941 140.71398941 140.71398941 140.71398941 140.71398941 140.71398941 140.71398941 140.71398941 140.71398941 140.71398941 140.71398941 140.71398941 140.71398941 140.71398941 140.71398941 140.71398941 140.71398941 140.71398941 140.71398941 140.71398941 140.71398941 140.71398941 140.71398941 140.71398941 140.71398941 140.71398941 140.71398941 140.71398941 140.71398941 140.71398941 140.71398941 140.71398941 140.71398941 140.71398941 140.71398941 140.71398941 140.71398941 140.71398941 140.71398941 140.71398941 140.71398941 140.71398941 140.71398941 140.71398941 140.71398941 140.71398941 140.71398941 140.71398941 140.71398941 140.71398941 140.71398941 140.71398941 140.71398941 140.71398941 140.71398941 140.71398941 140.71398941 140.71398941 140.71398941 140.71398941 140.71398941 140.71398941 140.71398941 140.71398941 140.71398941 140.71398941 140.71398941 140.71398941 140.71398941 140.71398941 140.71398941 140.71398941 140.71398941 140.71398941 140.71398941 140.71398941 140.71398941 140.71398941 140.71398941 140.71398941 140.71398941 140.71398941 140.71398941 140.71398941 140.71398941 140.71398941 140.71398941 140.71398941 140.71398941 140.71398941 140.71398941 140.71398941 140.71398941 140.71398941 140.71398941 140.71398941 140.71398941 140.71398941 140.71398941 140.71398941 140.71398941 140.71398941 140.71398941 140.71398941 140.71398941 140.71398941 140.71398941 140.71398941 140.71398941 140.71398941 140.71398941 140.71398941 140.71398941 140.71398941 140.71398941 140.71398941 140.71398941 140.71398941 140.71398941 140.71398941 140.71398941 140.71398941 140.71398941 140.71398941 140.71398941 140.71398941 140.71398941 140.71398941 140.71398941 140.71398941 140.71398941 140.71398941 140.71398941 140.71398941 140.71398941 140.71398941 140.71398941 140.71398941 140.71398941 140.71398941 140.71398941 140.71398941 140.71398941 140.71398941 140.71398941 140.71398941 140.71398941 140.71398941 140.71398941 140.71398941 140.71398941 140.71398941 140.71398941 140.71398941 140.71398941 140.71398941 140.71398941 140.71398941 140.71398941 140.71398941 140.71398941 140.71398941 140.71398941 140.71398941 140.71398941 140.71398941 140.71398941 140.71398941 140.71398941 140.71398941 140.71398941 140.71398941 140.71398941 140.71398941 140.71398941 140.71398941 140.71398941 140.71398941 140.71398941 140.71398941 140.71398941 140.71398941 140.71398941 140.71398941 140.71398941 140.71398941 140.71398941 140.71398941 140.71398941 140.71398941 140.71398941 140.71398941 140.71398941 140.71398941 140.71398941 140.71398941 140.71398941 140.71398941 140.71398941 140.71398941 140.71398941 140.71398941 140.71398941 140.71398941 140.71689662 140.71847282 140.71905175 140.71905175 140.71847282 140.71689662 140.71398941 140.71398941 140.71398941 140.71398941 140.71398941 140.71398941 140.71398941 140.71398941 140.71398941 140.71398941 140.71398941 140.71398941 140.71398941 140.71398941 140.71398941 140.71398941 140.71398941 140.71398941 140.71398941 140.71398941 140.71398941 140.71398941 140.71398941 140.71398941 140.71398941 140.71398941 140.71398941 140.71398941 140.71398941 140.71706112 140.71935432 140.72072809 140.72162822 140.72244077 140.72379987 140.72490861 140.72544369 140.72544369 140.72490861 140.72379987 140.72244077 140.72162822 140.72072809 140.71935432 140.71706112 140.71398941 140.71398941 140.71398941 140.71398941 140.71398941 140.71398941 140.71398941 140.71398941 140.71398941 140.71398941 140.71398941 140.71398941 140.71398941 140.71398941 140.71398941 140.71398941 140.71398941 140.71398941 140.71398941 140.71398941 140.71398941 140.71398941 140.71856487 140.72113783 140.72371638 140.72604323 140.72778008 140.72903724 140.73004031 140.73099627 140.73175245 140.73214789 140.73214789 140.73175245 140.73099627 140.73004031 140.72903724 140.72778008 140.72604323 140.72371638 140.72113783 140.71856487 140.71398941 140.71398941 140.71398941 140.71398941 140.71398941 140.71398941 140.71398941 140.71398941 140.71398941 140.71398941 140.71398941 140.71398941 140.71398941 140.71398941 140.71398941 140.71398941 140.71398941 140.71398941 140.71827201 140.72139339 140.72508716 140.72811463 140.73068741 140.73283951 140.73448899 140.73569588 140.73659451 140.73729792 140.73780362 140.73806628 140.73806628 140.73780362 140.73729792 140.73659451 140.73569588 140.73448899 140.73283951 140.73068741 140.72811463 140.72508716 140.72139339 140.71827201 140.71398941 140.71398941 140.71398941 140.71398941 140.71398941 140.71398941 140.71398941 140.71398941 140.71398941 140.71398941 140.71398941 140.71398941 140.71398941 140.71398941 140.71398941 140.71943312 140.72412348 140.72813023 140.73174985 140.73472236 140.73706842 140.73885675 140.74014074 140.74101636 140.74160444 140.74200543 140.74226591 140.74239556 140.74239556 140.74226591 140.74200543 140.74160444 140.74101636 140.74014074 140.73885675 140.73706842 140.73472236 140.73174985 140.72813023 140.72412348 140.71943312 140.71398941 140.71398941 140.71398941 140.71398941 140.71398941 140.71398941 140.71398941 140.71398941 140.71398941 140.71398941 140.71398941 140.71398941 140.71664914 140.72053084 140.72558459 140.73036675 140.73449607 140.73789316 140.74048533 140.74232373 140.74352689 140.74423079 140.74458081 140.74471546 140.74474450 140.74473653 140.74472576 140.74472576 140.74473653 140.74474450 140.74471546 140.74458081 140.74423079 140.74352689 140.74232373 140.74048533 140.73789316 140.73449607 140.73036675 140.72558459 140.72053084 140.71664914 140.71398941 140.71398941 140.71398941 140.71398941 140.71398941 140.71398941 140.71398941 140.71398941 140.71398941 140.71398941 140.72044714 140.72607477 140.73146803 140.73625602 140.74016523 140.74309029 140.74504319 140.74614643 140.74658707 140.74656861 140.74628258 140.74589029 140.74551196 140.74522523 140.74507278 140.74507278 140.74522523 140.74551196 140.74589029 140.74628258 140.74656861 140.74658707 140.74614643 140.74504319 140.74309029 140.74016523 140.73625602 140.73146803 140.72607477 140.72044714 140.71398941 140.71398941 140.71398941 140.71398941 140.71398941 140.71398941 140.71398941 140.71398941 140.71398941 140.71912513 140.72523272 140.73125669 140.73676788 140.74137916 140.74484767 140.74710960 140.74825710 140.74849638 140.74808927 140.74729891 140.74635439 140.74543366 140.74466069 140.74411215 140.74382926 140.74382926 140.74411215 140.74466069 140.74543366 140.74635439 140.74729891 140.74808927 140.74849638 140.74825710 140.74710960 140.74484767 140.74137916 140.73676788 140.73125669 140.72523272 140.71912513 140.71398941 140.71398941 140.71398941 140.71398941 140.71398941 140.71398941 140.71398941 140.71764996 140.72319651 140.72952335 140.73573209 140.74120187 140.74550233 140.74841307 140.74992890 140.75022443 140.74959001 140.74835819 140.74684179 140.74529644 140.74390743 140.74279443 140.74202569 140.74163484 140.74163484 140.74202569 140.74279443 140.74390743 140.74529644 140.74684179 140.74835819 140.74959001 140.75022443 140.74992890 140.74841307 140.74550233 140.74120187 140.73573209 140.72952335 140.72319651 140.71764996 140.71398941 140.71398941 140.71398941 140.71398941 140.71398941 140.71398941 140.71972605 140.72616101 140.73288516 140.73922948 140.74458828 140.74853683 140.75088887 140.75170083 140.75122378 140.74982235 140.74788785 140.74577024 140.74374096 140.74198487 140.74061205 140.73967866 140.73920826 140.73920826 140.73967866 140.74061205 140.74198487 140.74374096 140.74577024 140.74788785 140.74982235 140.75122378 140.75170083 140.75088887 140.74853683 140.74458828 140.73922948 140.73288516 140.72616101 140.71972605 140.71398941 140.71398941 140.71398941 140.71398941 140.71398941 140.71398941 140.72105928 140.72814739 140.73518275 140.74160951 140.74685090 140.75050028 140.75240500 140.75267250 140.75161314 140.74964672 140.74720605 140.74466504 140.74230270 140.74029975 140.73875607 140.73771647 140.73719543 140.73719543 140.73771647 140.73875607 140.74029975 140.74230270 140.74466504 140.74720605 140.74964672 140.75161314 140.75267250 140.75240500 140.75050028 140.74685090 140.74160951 140.73518275 140.72814739 140.72105928 140.71398941 140.71398941 140.71398941 140.71398941 140.71398941 140.71609274 140.72214192 140.72923145 140.73636291 140.74281319 140.74797870 140.75145687 140.75311369 140.75308514 140.75171390 140.74944907 140.74674483 140.74398657 140.74145598 140.73933032 140.73770304 140.73661219 140.73606696 140.73606696 140.73661219 140.73770304 140.73933032 140.74145598 140.74398657 140.74674483 140.74944907 140.75171390 140.75308514 140.75311369 140.75145687 140.74797870 140.74281319 140.73636291 140.72923145 140.72214192 140.71609274 140.71398941 140.71398941 140.71398941 140.71398941 140.71609274 140.72214192 140.72923145 140.73636291 140.74281319 140.74797870 140.75145687 140.75311369 140.75308514 140.75171390 140.74944907 140.74674483 140.74398657 140.74145598 140.73933032 140.73770304 140.73661219 140.73606696 140.73606696 140.73661219 140.73770304 140.73933032 140.74145598 140.74398657 140.74674483 140.74944907 140.75171390 140.75308514 140.75311369 140.75145687 140.74797870 140.74281319 140.73636291 140.72923145 140.72214192 140.71609274 140.71398941 140.71398941 140.71398941 140.71398941 140.71398941 140.72105928 140.72814739 140.73518275 140.74160951 140.74685090 140.75050028 140.75240500 140.75267250 140.75161314 140.74964672 140.74720605 140.74466504 140.74230270 140.74029975 140.73875607 140.73771647 140.73719543 140.73719543 140.73771647 140.73875607 140.74029975 140.74230270 140.74466504 140.74720605 140.74964672 140.75161314 140.75267250 140.75240500 140.75050028 140.74685090 140.74160951 140.73518275 140.72814739 140.72105928 140.71398941 140.71398941 140.71398941 140.71398941 140.71398941 140.71398941 140.71972605 140.72616101 140.73288516 140.73922948 140.74458828 140.74853683 140.75088887 140.75170083 140.75122378 140.74982235 140.74788785 140.74577024 140.74374096 140.74198487 140.74061205 140.73967866 140.73920826 140.73920826 140.73967866 140.74061205 140.74198487 140.74374096 140.74577024 140.74788785 140.74982235 140.75122378 140.75170083 140.75088887 140.74853683 140.74458828 140.73922948 140.73288516 140.72616101 140.71972605 140.71398941 140.71398941 140.71398941 140.71398941 140.71398941 140.71398941 140.71764996 140.72319651 140.72952335 140.73573209 140.74120187 140.74550233 140.74841307 140.74992890 140.75022443 140.74959001 140.74835819 140.74684179 140.74529644 140.74390743 140.74279443 140.74202569 140.74163484 140.74163484 140.74202569 140.74279443 140.74390743 140.74529644 140.74684179 140.74835819 140.74959001 140.75022443 140.74992890 140.74841307 140.74550233 140.74120187 140.73573209 140.72952335 140.72319651 140.71764996 140.71398941 140.71398941 140.71398941 140.71398941 140.71398941 140.71398941 140.71398941 140.71912513 140.72523272 140.73125669 140.73676788 140.74137916 140.74484767 140.74710960 140.74825710 140.74849638 140.74808927 140.74729891 140.74635439 140.74543366 140.74466069 140.74411215 140.74382926 140.74382926 140.74411215 140.74466069 140.74543366 140.74635439 140.74729891 140.74808927 140.74849638 140.74825710 140.74710960 140.74484767 140.74137916 140.73676788 140.73125669 140.72523272 140.71912513 140.71398941 140.71398941 140.71398941 140.71398941 140.71398941 140.71398941 140.71398941 140.71398941 140.71398941 140.72044714 140.72607477 140.73146803 140.73625602 140.74016523 140.74309029 140.74504319 140.74614643 140.74658707 140.74656861 140.74628258 140.74589029 140.74551196 140.74522523 140.74507278 140.74507278 140.74522523 140.74551196 140.74589029 140.74628258 140.74656861 140.74658707 140.74614643 140.74504319 140.74309029 140.74016523 140.73625602 140.73146803 140.72607477 140.72044714 140.71398941 140.71398941 140.71398941 140.71398941 140.71398941 140.71398941 140.71398941 140.71398941 140.71398941 140.71398941 140.71664914 140.72053084 140.72558459 140.73036675 140.73449607 140.73789316 140.74048533 140.74232373 140.74352689 140.74423079 140.74458081 140.74471546 140.74474450 140.74473653 140.74472576 140.74472576 140.74473653 140.74474450 140.74471546 140.74458081 140.74423079 140.74352689 140.74232373 140.74048533 140.73789316 140.73449607 140.73036675 140.72558459 140.72053084 140.71664914 140.71398941 140.71398941 140.71398941 140.71398941 140.71398941 140.71398941 140.71398941 140.71398941 140.71398941 140.71398941 140.71398941 140.71398941 140.71943312 140.72412348 140.72813023 140.73174985 140.73472236 140.73706842 140.73885675 140.74014074 140.74101636 140.74160444 140.74200543 140.74226591 140.74239556 140.74239556 140.74226591 140.74200543 140.74160444 140.74101636 140.74014074 140.73885675 140.73706842 140.73472236 140.73174985 140.72813023 140.72412348 140.71943312 140.71398941 140.71398941 140.71398941 140.71398941 140.71398941 140.71398941 140.71398941 140.71398941 140.71398941 140.71398941 140.71398941 140.71398941 140.71398941 140.71398941 140.71398941 140.71827201 140.72139339 140.72508716 140.72811463 140.73068741 140.73283951 140.73448899 140.73569588 140.73659451 140.73729792 140.73780362 140.73806628 140.73806628 140.73780362 140.73729792 140.73659451 140.73569588 140.73448899 140.73283951 140.73068741 140.72811463 140.72508716 140.72139339 140.71827201 140.71398941 140.71398941 140.71398941 140.71398941 140.71398941 140.71398941 140.71398941 140.71398941 140.71398941 140.71398941 140.71398941 140.71398941 140.71398941 140.71398941 140.71398941 140.71398941 140.71398941 140.71398941 140.71856487 140.72113783 140.72371638 140.72604323 140.72778008 140.72903724 140.73004031 140.73099627 140.73175245 140.73214789 140.73214789 140.73175245 140.73099627 140.73004031 140.72903724 140.72778008 140.72604323 140.72371638 140.72113783 140.71856487 140.71398941 140.71398941 140.71398941 140.71398941 140.71398941 140.71398941 140.71398941 140.71398941 140.71398941 140.71398941 140.71398941 140.71398941 140.71398941 140.71398941 140.71398941 140.71398941 140.71398941 140.71398941 140.71398941 140.71398941 140.71398941 140.71398941 140.71706112 140.71935432 140.72072809 140.72162822 140.72244077 140.72379987 140.72490861 140.72544369 140.72544369 140.72490861 140.72379987 140.72244077 140.72162822 140.72072809 140.71935432 140.71706112 140.71398941 140.71398941 140.71398941 140.71398941 140.71398941 140.71398941 140.71398941 140.71398941 140.71398941 140.71398941 140.71398941 140.71398941 140.71398941 140.71398941 140.71398941 140.71398941 140.71398941 140.71398941 140.71398941 140.71398941 140.71398941 140.71398941 140.71398941 140.71398941 140.71398941 140.71398941 140.71398941 140.71398941 140.71398941 140.71689662 140.71847282 140.71905175 140.71905175 140.71847282 140.71689662 140.71398941 140.71398941 140.71398941 140.71398941 140.71398941 140.71398941 140.71398941 140.71398941 140.71398941 140.71398941 140.71398941 140.71398941 140.71398941 140.71398941 140.71398941 140.71398941 140.71398941 140.71398941 140.71398941 140.71398941 140.71398941 140.71398941 140.71398941 140.71398941 140.71398941 140.71398941 140.71398941 140.71398941 140.71398941 140.71398941 140.71398941 140.71398941 140.71398941 140.71398941 140.71398941 140.71398941 140.71398941 140.71398941 140.71398941 140.71398941 140.71398941 140.71398941 140.71398941 140.71398941 140.71398941 140.71398941 140.71398941 140.71398941 140.71398941 140.71398941 140.71398941 140.71398941 140.71398941 140.71398941 140.71398941 140.71398941 140.71398941 140.71398941 140.71398941 140.71398941 140.71398941 140.71398941 140.71398941 140.71398941 140.71398941 140.71398941 140.71398941 140.71398941 140.71398941 140.71398941 140.71398941 140.71398941 140.71398941 140.71398941 140.71398941 140.71398941 140.71398941 140.71398941 140.71398941 140.71398941 140.71398941 140.71398941 140.71398941 140.71398941 140.71398941 140.71398941 140.71398941 140.71398941 140.71398941 140.71398941 140.71398941 140.71398941 140.71398941 140.71398941 140.71398941 140.71398941 140.71398941 140.71398941 140.71398941 140.71398941 140.71398941 140.71398941 140.71398941 140.71398941 140.71398941 140.71398941 140.71398941 140.71398941 140.71398941 140.71398941 140.71398941 140.71398941 140.71398941 140.71398941 140.71398941 140.71398941 140.71398941 140.71398941 140.71398941 140.71398941 140.71398941 140.71398941 140.71398941 140.71398941 140.71398941 140.71398941 140.71398941 140.71398941 140.71398941 140.71398941 140.71398941 140.71398941 140.71398941 140.71398941 140.71398941 140.71398941 140.71398941 140.71398941 140.71398941 140.71398941 140.71398941 140.71398941 140.71398941 140.71398941 140.71398941 140.71398941 140.71398941 140.71398941 140.71398941 140.71398941 140.71398941 140.71398941 140.71398941 140.71398941 140.71398941 140.71398941 140.71398941 140.71398941 140.71398941 140.71398941 140.71398941 140.71398941 140.71398941 140.71398941 140.71398941 140.71398941 140.71398941 140.71398941 140.71398941 140.71398941 140.71398941 140.71398941 140.71398941 140.71398941 140.71398941 140.71398941 140.71398941 140.71398941 140.71398941 140.71398941 140.71398941 140.71398941 140.71398941 140.71398941 140.71398941 140.71398941 140.71398941 140.71398941 140.71398941 140.71398941 140.71398941 140.71398941 140.71398941 140.71398941 140.71398941 140.71398941 140.71398941 140.71398941 140.71398941 140.71398941 140.71398941 140.71398941 140.71398941 140.71398941 140.71398941 140.71398941 140.71398941 140.71398941 140.71398941 140.71398941 140.71398941 140.71398941 140.71398941 140.71398941 140.71398941 140.71398941 140.71398941 140.71398941 140.71398941 140.71398941 140.71398941 140.71398941 140.71398941 140.71398941 140.71398941 140.71398941 140.71398941 140.71398941 140.71398941 140.71398941 140.71398941 140.71398941 140.71398941 140.71398941 140.71398941 140.71398941 140.71398941 140.71398941 140.71398941 140.71398941 140.71398941 140.71398941 140.71398941 140.71398941 140.71398941 140.71398941 140.71398941 140.71398941 140.71398941 140.71398941 140.71398941 140.71398941 140.71398941 140.71398941 140.71398941 140.71398941 140.71398941 140.71398941 140.71398941 140.71398941 140.71398941 140.71398941 140.71398941 140.71398941 140.71398941 140.71398941 140.71398941 140.71398941 140.71398941 140.71398941 140.71398941 140.71398941 140.71398941 140.71398941 140.71398941 140.71398941 140.71398941 140.71398941 140.71398941 140.71398941 140.71398941 140.71398941 140.71398941 140.71398941 140.71398941 140.71398941 140.71398941 140.71398941 140.71398941 140.71398941 140.71398941 140.71398941 140.71398941 140.71398941 140.71398941 140.71398941 140.71398941 140.71398941 140.71398941 140.71398941 140.71398941 140.71398941 140.71398941 140.71398941 140.71398941 140.71398941 140.71398941 140.71398941 140.71398941 140.71398941 140.71398941 140.71398941 140.71398941 140.71398941 140.71398941 140.71398941 140.71398941 140.71398941 140.71398941 140.71398941 140.71398941 140.71398941 140.71398941 140.71398941 140.71398941 140.71398941 140.71398941 140.71398941 140.71398941 140.71398941 140.71398941 140.71398941 140.71398941 140.71398941 140.71398941 140.71398941 140.71398941 