# vtk DataFile Version 3.0
VTK - Matlab export
ASCII
DATASET STRUCTURED_POINTS
DIMENSIONS 40 40 1
SPACING 1 1 1
ORIGIN 0 0 0
POINT_DATA 1600
SCALARS lambda-2 float 1
LOOKUP_TABLE default
8.35311101 8.35311101 8.35311101 8.35311101 8.35311101 8.35311101 8.35311101 8.35311101 8.35311101 8.35311101 8.35311101 8.35311101 8.35311101 8.35311101 8.35311101 8.35311101 8.35311101 8.35311101 8.35311101 8.35311101 8.35311101 8.35311101 8.35311101 8.35311101 8.35311101 8.35311101 8.35311101 8.35311101 8.35311101 8.35311101 8.35311101 8.35311101 8.35311101 8.35311101 8.35311101 8.35311101 8.35311101 8.35311101 8.35311101 8.35311101 8.35311101 8.35311101 8.35311101 8.35311101 8.35311101 8.35311101 8.35311101 8.35311101 8.35311101 8.35311101 8.35311101 8.35311101 8.35311101 8.35311101 8.35311101 8.35311101 8.35311101 8.35311101 8.35311101 8.35311101 8.35311101 8.35311101 8.35311101 8.35311101 8.35311101 8.35311101 8.35311101 8.35311101 8.35311101 8.35311101 8.35311101 8.35311101 8.35311101 8.35311101 8.35311101 8.35311101 8.35311101 8.35311101 8.35311101 8.35311101 8.35311101 8.35311101 8.35311101 8.35311101 8.35311101 8.35311101 8.35311101 8.35311101 8.35311101 8.35311101 8.35311101 8.35311101 8.35311101 8.35311101 8.35311101 8.35311101 8.35311101 8.35311101 8.35311101 8.35311101 8.35311101 8.35311101 8.35311101 8.35311101 8.35311101 8.35311101 8.35311101 8.35311101 8.35311101 8.35311101 8.35311101 8.35311101 8.35311101 8.35311101 8.35311101 8.35311101 8.35311101 8.35311101 8.35311101 8.35311101 8.35311101 8.35311101 8.35311101 8.35311101 8.35311101 8.35311101 8.35311101 8.35311101 8.35311101 8.35311101 8.35311101 8.35311101 8.35311101 8.35311101 8.35311101 8.35311101 8.35311101 8.35311101 8.35311101 8.35311101 8.35311101 8.35311101 8.35311101 8.35311101 8.35311101 8.35311101 8.35311101 8.35311101 8.35311101 8.35311101 8.35311101 8.35311101 8.35311101 8.35311101 8.35311101 8.35311101 8.35311101 8.35311101 8.35311101 8.35311101 8.35311101 8.35311101 8.35311101 8.35311101 8.35311101 8.35311101 8.35311101 8.35311101 8.35311101 8.35311101 8.35311101 8.35311101 8.35311101 8.35311101 8.35311101 8.35311101 8.35311101 8.35311101 8.35311101 8.35311101 8.35311101 8.35311101 8.35311101 8.35311101 8.35311101 8.35311101 8.35311101 8.35311101 8.35311101 8.35311101 8.35311101 8.35311101 8.35311101 8.35311101 8.35311101 8.35311101 8.35311101 8.35311101 8.35311101 8.35311101 8.35311101 8.35311101 8.35311101 8.35311101 8.35311101 8.35311101 8.35311101 8.35311101 8.35311101 8.35311101 8.35311101 8.35311101 8.35311101 8.35311101 8.35311101 8.35311101 8.35311101 8.35311101 8.35311101 8.35311101 8.35311101 8.35311101 8.35311101 8.35311101 8.35311101 8.35311101 8.35311101 8.35311101 8.35311101 8.35311101 8.35311101 8.35311101 8.35311101 8.35311101 8.35311101 8.35311101 8.35311101 8.35311101 8.35311101 8.35311101 8.35311101 8.35311101 8.35311101 8.35311101 8.35311101 8.35311101 8.35311101 8.35311101 8.35311101 8.35311101 8.35311101 8.35311101 8.35311101 8.35311101 8.35311101 8.35311101 8.35311101 8.35311101 8.35311101 8.35311101 8.35311101 8.35311101 8.35311101 8.35311101 8.35311101 8.35311101 8.35311101 8.35311101 8.35311101 8.35311101 8.35311101 8.35311101 8.35311101 8.35311101 8.35311101 8.35311101 8.35311101 8.35311101 8.35311101 8.35311101 8.35311101 8.35311101 8.35311101 8.35311101 8.35311101 8.35311101 8.35311101 8.35311101 8.35311101 8.35311101 8.35311101 8.35311101 8.35311101 8.35311101 8.35311101 8.35311101 8.35311101 8.35311101 8.35311101 8.35311101 8.35311101 8.35311101 8.35311101 8.35311101 8.35311101 8.35311101 8.35311101 8.35311101 8.35311101 8.35311101 8.35311101 8.35311101 8.35311101 8.35311101 8.35311101 8.35311101 8.35311101 8.35311101 8.35311101 8.35311101 8.35311101 8.35311101 8.35311101 8.35311101 8.35311101 8.35311101 8.35311101 8.35311101 8.35311101 8.35311101 8.35311101 8.35311101 8.35311101 8.35311101 8.35311101 8.35311101 8.35311101 8.33871846 8.32993902 8.32637996 8.32637996 8.32993902 8.33871846 8.35311101 8.35311101 8.35311101 8.35311101 8.35311101 8.35311101 8.35311101 8.35311101 8.35311101 8.35311101 8.35311101 8.35311101 8.35311101 8.35311101 8.35311101 8.35311101 8.35311101 8.35311101 8.35311101 8.35311101 8.35311101 8.35311101 8.35311101 8.35311101 8.35311101 8.35311101 8.35311101 8.35311101 8.35311101 8.33805004 8.32693664 8.32119588 8.31839606 8.31583317 8.30953177 8.30355070 8.30040656 8.30040656 8.30355070 8.30953177 8.31583317 8.31839606 8.32119588 8.32693664 8.33805004 8.35311101 8.35311101 8.35311101 8.35311101 8.35311101 8.35311101 8.35311101 8.35311101 8.35311101 8.35311101 8.35311101 8.35311101 8.35311101 8.35311101 8.35311101 8.35311101 8.35311101 8.35311101 8.35311101 8.35311101 8.35311101 8.35311101 8.33104862 8.31975187 8.30936750 8.30100001 8.29646556 8.29472984 8.29370022 8.29152538 8.28896791 8.28740382 8.28740382 8.28896791 8.29152538 8.29370022 8.29472984 8.29646556 8.30100001 8.30936750 8.31975187 8.33104862 8.35311101 8.35311101 8.35311101 8.35311101 8.35311101 8.35311101 8.35311101 8.35311101 8.35311101 8.35311101 8.35311101 8.35311101 8.35311101 8.35311101 8.35311101 8.35311101 8.35311101 8.35311101 8.33268448 8.31933097 8.30481273 8.29577073 8.29048578 8.28787738 8.28779728 8.28933508 8.29110285 8.29203987 8.29217196 8.29206326 8.29206326 8.29217196 8.29203987 8.29110285 8.28933508 8.28779728 8.28787738 8.29048578 8.29577073 8.30481273 8.31933097 8.33268448 8.35311101 8.35311101 8.35311101 8.35311101 8.35311101 8.35311101 8.35311101 8.35311101 8.35311101 8.35311101 8.35311101 8.35311101 8.35311101 8.35311101 8.35311101 8.32803130 8.30881937 8.29647109 8.28901188 8.28676521 8.28811148 8.29136112 8.29553037 8.29982722 8.30351202 8.30611651 8.30763469 8.30830855 8.30830855 8.30763469 8.30611651 8.30351202 8.29982722 8.29553037 8.29136112 8.28811148 8.28676521 8.28901188 8.29647109 8.30881937 8.32803130 8.35311101 8.35311101 8.35311101 8.35311101 8.35311101 8.35311101 8.35311101 8.35311101 8.35311101 8.35311101 8.35311101 8.35311101 8.33985595 8.32273584 8.30390922 8.29146619 8.28660540 8.28759605 8.29249087 8.29914668 8.30593468 8.31203328 8.31710502 8.32101176 8.32374858 8.32543753 8.32623632 8.32623632 8.32543753 8.32374858 8.32101176 8.31710502 8.31203328 8.30593468 8.29914668 8.29249087 8.28759605 8.28660540 8.29146619 8.30390922 8.32273584 8.33985595 8.35311101 8.35311101 8.35311101 8.35311101 8.35311101 8.35311101 8.35311101 8.35311101 8.35311101 8.35311101 8.32215566 8.30111802 8.28867999 8.28539921 8.28937000 8.29742810 8.30680046 8.31560547 8.32292549 8.32858684 8.33277527 8.33575553 8.33776718 8.33900281 8.33959136 8.33959136 8.33900281 8.33776718 8.33575553 8.33277527 8.32858684 8.32292549 8.31560547 8.30680046 8.29742810 8.28937000 8.28539921 8.28867999 8.30111802 8.32215566 8.35311101 8.35311101 8.35311101 8.35311101 8.35311101 8.35311101 8.35311101 8.35311101 8.35311101 8.32681622 8.30174775 8.28683965 8.28355992 8.28945786 8.30024166 8.31201836 8.32243183 8.33057666 8.33646672 8.34053017 8.34326495 8.34507656 8.34624632 8.34695023 8.34728324 8.34728324 8.34695023 8.34624632 8.34507656 8.34326495 8.34053017 8.33646672 8.33057666 8.32243183 8.31201836 8.30024166 8.28945786 8.28355992 8.28683965 8.30174775 8.32681622 8.35311101 8.35311101 8.35311101 8.35311101 8.35311101 8.35311101 8.35311101 8.33254622 8.30654538 8.28702596 8.28059034 8.28638477 8.29918619 8.31345750 8.32574219 8.33486405 8.34103599 8.34497862 8.34742277 8.34892547 8.34985257 8.35042281 8.35075668 8.35091266 8.35091266 8.35075668 8.35042281 8.34985257 8.34892547 8.34742277 8.34497862 8.34103599 8.33486405 8.32574219 8.31345750 8.29918619 8.28638477 8.28059034 8.28702596 8.30654538 8.33254622 8.35311101 8.35311101 8.35311101 8.35311101 8.35311101 8.35311101 8.32133572 8.29388113 8.27926500 8.28047008 8.29312755 8.30981419 8.32482822 8.33582892 8.34290383 8.34709096 8.34945443 8.35076549 8.35149809 8.35191692 8.35216107 8.35229949 8.35236315 8.35236315 8.35229949 8.35216107 8.35191692 8.35149809 8.35076549 8.34945443 8.34709096 8.34290383 8.33582892 8.32482822 8.30981419 8.29312755 8.28047008 8.27926500 8.29388113 8.32133572 8.35311101 8.35311101 8.35311101 8.35311101 8.35311101 8.35311101 8.31479549 8.28703421 8.27640531 8.28305208 8.29983339 8.31807998 8.33251535 8.34191259 8.34727307 8.35007592 8.35147238 8.35215975 8.35250499 8.35268603 8.35278530 8.35283957 8.35286410 8.35286410 8.35283957 8.35278530 8.35268603 8.35250499 8.35215975 8.35147238 8.35007592 8.34727307 8.34191259 8.33251535 8.31807998 8.29983339 8.28305208 8.27640531 8.28703421 8.31479549 8.35311101 8.35311101 8.35311101 8.35311101 8.35311101 8.34099100 8.30919437 8.28364121 8.27569789 8.28518975 8.30380403 8.32244669 8.33625588 8.34465848 8.34910349 8.35123646 8.35220220 8.35263191 8.35282765 8.35292206 8.35297081 8.35299656 8.35300803 8.35300803 8.35299656 8.35297081 8.35292206 8.35282765 8.35263191 8.35220220 8.35123646 8.34910349 8.34465848 8.33625588 8.32244669 8.30380403 8.28518975 8.27569789 8.28364121 8.30919437 8.34099100 8.35311101 8.35311101 8.35311101 8.35311101 8.34099100 8.30919437 8.28364121 8.27569789 8.28518975 8.30380403 8.32244669 8.33625588 8.34465848 8.34910349 8.35123646 8.35220220 8.35263191 8.35282765 8.35292206 8.35297081 8.35299656 8.35300803 8.35300803 8.35299656 8.35297081 8.35292206 8.35282765 8.35263191 8.35220220 8.35123646 8.34910349 8.34465848 8.33625588 8.32244669 8.30380403 8.28518975 8.27569789 8.28364121 8.30919437 8.34099100 8.35311101 8.35311101 8.35311101 8.35311101 8.35311101 8.31479549 8.28703421 8.27640531 8.28305208 8.29983339 8.31807998 8.33251535 8.34191259 8.34727307 8.35007592 8.35147238 8.35215975 8.35250499 8.35268603 8.35278530 8.35283957 8.35286410 8.35286410 8.35283957 8.35278530 8.35268603 8.35250499 8.35215975 8.35147238 8.35007592 8.34727307 8.34191259 8.33251535 8.31807998 8.29983339 8.28305208 8.27640531 8.28703421 8.31479549 8.35311101 8.35311101 8.35311101 8.35311101 8.35311101 8.35311101 8.32133572 8.29388113 8.27926500 8.28047008 8.29312755 8.30981419 8.32482822 8.33582892 8.34290383 8.34709096 8.34945443 8.35076549 8.35149809 8.35191692 8.35216107 8.35229949 8.35236315 8.35236315 8.35229949 8.35216107 8.35191692 8.35149809 8.35076549 8.34945443 8.34709096 8.34290383 8.33582892 8.32482822 8.30981419 8.29312755 8.28047008 8.27926500 8.29388113 8.32133572 8.35311101 8.35311101 8.35311101 8.35311101 8.35311101 8.35311101 8.33254622 8.30654538 8.28702596 8.28059034 8.28638477 8.29918619 8.31345750 8.32574219 8.33486405 8.34103599 8.34497862 8.34742277 8.34892547 8.34985257 8.35042281 8.35075668 8.35091266 8.35091266 8.35075668 8.35042281 8.34985257 8.34892547 8.34742277 8.34497862 8.34103599 8.33486405 8.32574219 8.31345750 8.29918619 8.28638477 8.28059034 8.28702596 8.30654538 8.33254622 8.35311101 8.35311101 8.35311101 8.35311101 8.35311101 8.35311101 8.35311101 8.32681622 8.30174775 8.28683965 8.28355992 8.28945786 8.30024166 8.31201836 8.32243183 8.33057666 8.33646672 8.34053017 8.34326495 8.34507656 8.34624632 8.34695023 8.34728324 8.34728324 8.34695023 8.34624632 8.34507656 8.34326495 8.34053017 8.33646672 8.33057666 8.32243183 8.31201836 8.30024166 8.28945786 8.28355992 8.28683965 8.30174775 8.32681622 8.35311101 8.35311101 8.35311101 8.35311101 8.35311101 8.35311101 8.35311101 8.35311101 8.35311101 8.32215566 8.30111802 8.28867999 8.28539921 8.28937000 8.29742810 8.30680046 8.31560547 8.32292549 8.32858684 8.33277527 8.33575553 8.33776718 8.33900281 8.33959136 8.33959136 8.33900281 8.33776718 8.33575553 8.33277527 8.32858684 8.32292549 8.31560547 8.30680046 8.29742810 8.28937000 8.28539921 8.28867999 8.30111802 8.32215566 8.35311101 8.35311101 8.35311101 8.35311101 8.35311101 8.35311101 8.35311101 8.35311101 8.35311101 8.35311101 8.33985595 8.32273584 8.30390922 8.29146619 8.28660540 8.28759605 8.29249087 8.29914668 8.30593468 8.31203328 8.31710502 8.32101176 8.32374858 8.32543753 8.32623632 8.32623632 8.32543753 8.32374858 8.32101176 8.31710502 8.31203328 8.30593468 8.29914668 8.29249087 8.28759605 8.28660540 8.29146619 8.30390922 8.32273584 8.33985595 8.35311101 8.35311101 8.35311101 8.35311101 8.35311101 8.35311101 8.35311101 8.35311101 8.35311101 8.35311101 8.35311101 8.35311101 8.32803130 8.30881937 8.29647109 8.28901188 8.28676521 8.28811148 8.29136112 8.29553037 8.29982722 8.30351202 8.30611651 8.30763469 8.30830855 8.30830855 8.30763469 8.30611651 8.30351202 8.29982722 8.29553037 8.29136112 8.28811148 8.28676521 8.28901188 8.29647109 8.30881937 8.32803130 8.35311101 8.35311101 8.35311101 8.35311101 8.35311101 8.35311101 8.35311101 8.35311101 8.35311101 8.35311101 8.35311101 8.35311101 8.35311101 8.35311101 8.35311101 8.33268448 8.31933097 8.30481273 8.29577073 8.29048578 8.28787738 8.28779728 8.28933508 8.29110285 8.29203987 8.29217196 8.29206326 8.29206326 8.29217196 8.29203987 8.29110285 8.28933508 8.28779728 8.28787738 8.29048578 8.29577073 8.30481273 8.31933097 8.33268448 8.35311101 8.35311101 8.35311101 8.35311101 8.35311101 8.35311101 8.35311101 8.35311101 8.35311101 8.35311101 8.35311101 8.35311101 8.35311101 8.35311101 8.35311101 8.35311101 8.35311101 8.35311101 8.33104862 8.31975187 8.30936750 8.30100001 8.29646556 8.29472984 8.29370022 8.29152538 8.28896791 8.28740382 8.28740382 8.28896791 8.29152538 8.29370022 8.29472984 8.29646556 8.30100001 8.30936750 8.31975187 8.33104862 8.35311101 8.35311101 8.35311101 8.35311101 8.35311101 8.35311101 8.35311101 8.35311101 8.35311101 8.35311101 8.35311101 8.35311101 8.35311101 8.35311101 8.35311101 8.35311101 8.35311101 8.35311101 8.35311101 8.35311101 8.35311101 8.35311101 8.33805004 8.32693664 8.32119588 8.31839606 8.31583317 8.30953177 8.30355070 8.30040656 8.30040656 8.30355070 8.30953177 8.31583317 8.31839606 8.32119588 8.32693664 8.33805004 8.35311101 8.35311101 8.35311101 8.35311101 8.35311101 8.35311101 8.35311101 8.35311101 8.35311101 8.35311101 8.35311101 8.35311101 8.35311101 8.35311101 8.35311101 8.35311101 8.35311101 8.35311101 8.35311101 8.35311101 8.35311101 8.35311101 8.35311101 8.35311101 8.35311101 8.35311101 8.35311101 8.35311101 8.35311101 8.33871846 8.32993902 8.32637996 8.32637996 8.32993902 8.33871846 8.35311101 8.35311101 8.35311101 8.35311101 8.35311101 8.35311101 8.35311101 8.35311101 8.35311101 8.35311101 8.35311101 8.35311101 8.35311101 8.35311101 8.35311101 8.35311101 8.35311101 8.35311101 8.35311101 8.35311101 8.35311101 8.35311101 8.35311101 8.35311101 8.35311101 8.35311101 8.35311101 8.35311101 8.35311101 8.35311101 8.35311101 8.35311101 8.35311101 8.35311101 8.35311101 8.35311101 8.35311101 8.35311101 8.35311101 8.35311101 8.35311101 8.35311101 8.35311101 8.35311101 8.35311101 8.35311101 8.35311101 8.35311101 8.35311101 8.35311101 8.35311101 8.35311101 8.35311101 8.35311101 8.35311101 8.35311101 8.35311101 8.35311101 8.35311101 8.35311101 8.35311101 8.35311101 8.35311101 8.35311101 8.35311101 8.35311101 8.35311101 8.35311101 8.35311101 8.35311101 8.35311101 8.35311101 8.35311101 8.35311101 8.35311101 8.35311101 8.35311101 8.35311101 8.35311101 8.35311101 8.35311101 8.35311101 8.35311101 8.35311101 8.35311101 8.35311101 8.35311101 8.35311101 8.35311101 8.35311101 8.35311101 8.35311101 8.35311101 8.35311101 8.35311101 8.35311101 8.35311101 8.35311101 8.35311101 8.35311101 8.35311101 8.35311101 8.35311101 8.35311101 8.35311101 8.35311101 8.35311101 8.35311101 8.35311101 8.35311101 8.35311101 8.35311101 8.35311101 8.35311101 8.35311101 8.35311101 8.35311101 8.35311101 8.35311101 8.35311101 8.35311101 8.35311101 8.35311101 8.35311101 8.35311101 8.35311101 8.35311101 8.35311101 8.35311101 8.35311101 8.35311101 8.35311101 8.35311101 8.35311101 8.35311101 8.35311101 8.35311101 8.35311101 8.35311101 8.35311101 8.35311101 8.35311101 8.35311101 8.35311101 8.35311101 8.35311101 8.35311101 8.35311101 8.35311101 8.35311101 8.35311101 8.35311101 8.35311101 8.35311101 8.35311101 8.35311101 8.35311101 8.35311101 8.35311101 8.35311101 8.35311101 8.35311101 8.35311101 8.35311101 8.35311101 8.35311101 8.35311101 8.35311101 8.35311101 8.35311101 8.35311101 8.35311101 8.35311101 8.35311101 8.35311101 8.35311101 8.35311101 8.35311101 8.35311101 8.35311101 8.35311101 8.35311101 8.35311101 8.35311101 8.35311101 8.35311101 8.35311101 8.35311101 8.35311101 8.35311101 8.35311101 8.35311101 8.35311101 8.35311101 8.35311101 8.35311101 8.35311101 8.35311101 8.35311101 8.35311101 8.35311101 8.35311101 8.35311101 8.35311101 8.35311101 8.35311101 8.35311101 8.35311101 8.35311101 8.35311101 8.35311101 8.35311101 8.35311101 8.35311101 8.35311101 8.35311101 8.35311101 8.35311101 8.35311101 8.35311101 8.35311101 8.35311101 8.35311101 8.35311101 8.35311101 8.35311101 8.35311101 8.35311101 8.35311101 8.35311101 8.35311101 8.35311101 8.35311101 8.35311101 8.35311101 8.35311101 8.35311101 8.35311101 8.35311101 8.35311101 8.35311101 8.35311101 8.35311101 8.35311101 8.35311101 8.35311101 8.35311101 8.35311101 8.35311101 8.35311101 8.35311101 8.35311101 8.35311101 8.35311101 8.35311101 8.35311101 8.35311101 8.35311101 8.35311101 8.35311101 8.35311101 8.35311101 8.35311101 8.35311101 8.35311101 8.35311101 8.35311101 8.35311101 8.35311101 8.35311101 8.35311101 8.35311101 8.35311101 8.35311101 8.35311101 8.35311101 8.35311101 8.35311101 8.35311101 8.35311101 8.35311101 8.35311101 8.35311101 8.35311101 8.35311101 8.35311101 8.35311101 8.35311101 8.35311101 8.35311101 8.35311101 8.35311101 8.35311101 8.35311101 8.35311101 8.35311101 8.35311101 8.35311101 8.35311101 8.35311101 8.35311101 8.35311101 8.35311101 8.35311101 8.35311101 8.35311101 8.35311101 8.35311101 8.35311101 8.35311101 8.35311101 8.35311101 8.35311101 8.35311101 8.35311101 8.35311101 8.35311101 8.35311101 8.35311101 8.35311101 8.35311101 8.35311101 8.35311101 8.35311101 8.35311101 8.35311101 8.35311101 8.35311101 8.35311101 8.35311101 8.35311101 8.35311101 8.35311101 8.35311101 8.35311101 8.35311101 8.35311101 