# vtk DataFile Version 3.0
VTK - Matlab export
ASCII
DATASET STRUCTURED_POINTS
DIMENSIONS 40 40 1
SPACING 1 1 1
ORIGIN 0 0 0
POINT_DATA 1600
SCALARS Temperature float 1
LOOKUP_TABLE default
200.00000000 200.00000000 200.00000000 200.00000000 200.00000000 200.00000000 200.00000000 200.00000000 200.00000000 200.00000000 200.00000000 200.00000000 200.00000000 200.00000000 200.00000000 200.00000000 200.00000000 200.00000000 200.00000000 200.00000000 200.00000000 200.00000000 200.00000000 200.00000000 200.00000000 200.00000000 200.00000000 200.00000000 200.00000000 200.00000000 200.00000000 200.00000000 200.00000000 200.00000000 200.00000000 200.00000000 200.00000000 200.00000000 200.00000000 200.00000000 200.00000000 200.00000000 200.00000000 200.00000000 200.00000000 200.00000000 200.00000000 200.00000000 200.00000000 200.00000000 200.00000000 200.00000000 200.00000000 200.00000000 200.00000000 200.00000000 200.00000000 200.00000000 200.00000000 200.00000000 200.00000000 200.00000000 200.00000000 200.00000000 200.00000000 200.00000000 200.00000000 200.00000000 200.00000000 200.00000000 200.00000000 200.00000000 200.00000000 200.00000000 200.00000000 200.00000000 200.00000000 200.00000000 200.00000000 200.00000000 200.00000000 200.00000000 200.00000000 200.00000000 200.00000000 200.00000000 200.00000000 200.00000000 200.00000000 200.00000000 200.00000000 200.00000000 200.00000000 200.00000000 200.00000000 200.00000000 200.00000000 200.00000000 200.00000000 200.00000000 200.00000000 200.00000000 200.00000000 200.00000000 200.00000000 200.00000000 200.00000000 200.00000000 200.00000000 200.00000000 200.00000000 200.00000000 200.00000000 200.00000000 200.00000000 200.00000000 200.00000000 200.00000000 200.00000000 200.00000000 200.00000000 200.00000000 200.00000000 200.00000000 200.00000000 200.00000000 200.00000000 200.00000000 200.00000000 200.00000000 200.00000000 200.00000000 200.00000000 200.00000000 200.00000000 200.00000000 200.00000000 200.00000000 200.00000000 200.00000000 200.00000000 200.00000000 200.00000000 200.00000000 200.00000000 200.00000000 200.00000000 200.00000000 200.00000000 200.00000000 200.00000000 200.00000000 200.00000000 200.00000000 200.00000000 200.00000000 200.00000000 200.00000000 200.00000000 200.00000000 200.00000000 200.00000000 200.00000000 200.00000000 200.00000000 200.00000000 200.00000000 200.00000000 200.00000000 200.00000000 200.00000000 200.00000000 200.00000000 200.00000000 200.00000000 200.00000000 200.00000000 200.00000000 200.00000000 200.00000000 200.00000000 200.00000000 200.00000000 200.00000000 200.00000000 200.00000000 200.00000000 200.00000000 200.00000000 200.00000000 200.00000000 200.00000000 200.00000000 200.00000000 200.00000000 200.00000000 200.00000000 200.00000000 200.00000000 200.00000000 200.00000000 200.00000000 200.00000000 200.00000000 200.00000000 200.00000000 200.00000000 200.00000000 200.00000000 200.00000000 200.00000000 200.00000000 200.00000000 200.00000000 200.00000000 200.00000000 200.00000000 200.00000000 200.00000000 200.00000000 200.00000000 200.00000000 200.00000000 200.00000000 200.00000000 200.00000000 200.00000000 200.00000000 200.00000000 200.00000000 200.00000000 200.00000000 200.00000000 200.00000000 200.00000000 200.00000000 200.00000000 200.00000000 200.00000000 200.00000000 200.00000000 200.00000000 200.00000000 200.00000000 200.00000000 200.00000000 200.00000000 200.00000000 200.00000000 200.00000000 200.00000000 200.00000000 200.00000000 200.00000000 200.00000000 200.00000000 200.00000000 200.00000000 200.00000000 200.00000000 200.00000000 200.00000000 200.00000000 200.00000000 200.00000000 200.00000000 200.00000000 200.00000000 200.00000000 200.00000000 200.00000000 200.00000000 200.00000000 200.00000000 200.00000000 200.00000000 200.00000000 200.00000000 200.00000000 200.00000000 200.00000000 200.00000000 200.00000000 200.00000000 200.00000000 200.00000000 200.00000000 200.00000000 200.00000000 200.00000000 200.00000000 200.00000000 200.00000000 200.00000000 200.00000000 200.00000000 200.00000000 200.00000000 200.00000000 200.00000000 200.00000000 200.00000000 200.00000000 200.00000000 200.00000000 200.00000000 200.00000000 200.00000000 200.00000000 200.00000000 200.00000000 200.00000000 200.00000000 200.00000000 200.00000000 200.00000000 200.00000000 200.00000000 200.00000000 200.00000000 200.00000000 200.00000000 200.00000000 200.00000000 200.00000000 200.00000000 200.00000000 200.00000000 200.00000000 200.00000000 200.00000000 200.00000000 200.00000000 200.00000000 200.00000000 200.00000000 200.00000000 223.85751811 236.69661145 241.39933200 241.39933200 236.69661145 223.85751811 200.00000000 200.00000000 200.00000000 200.00000000 200.00000000 200.00000000 200.00000000 200.00000000 200.00000000 200.00000000 200.00000000 200.00000000 200.00000000 200.00000000 200.00000000 200.00000000 200.00000000 200.00000000 200.00000000 200.00000000 200.00000000 200.00000000 200.00000000 200.00000000 200.00000000 200.00000000 200.00000000 200.00000000 200.00000000 224.03427949 242.46196940 254.08594767 262.21535697 269.67558916 281.36374525 290.75971573 295.29528415 295.29528415 290.75971573 281.36374525 269.67558916 262.21535697 254.08594767 242.46196940 224.03427949 200.00000000 200.00000000 200.00000000 200.00000000 200.00000000 200.00000000 200.00000000 200.00000000 200.00000000 200.00000000 200.00000000 200.00000000 200.00000000 200.00000000 200.00000000 200.00000000 200.00000000 200.00000000 200.00000000 200.00000000 200.00000000 200.00000000 234.56164131 254.98429752 276.33455254 296.43607004 312.45968219 324.95474586 335.32664985 344.89631171 352.26857001 356.10292668 356.10292668 352.26857001 344.89631171 335.32664985 324.95474586 312.45968219 296.43607004 276.33455254 254.98429752 234.56164131 200.00000000 200.00000000 200.00000000 200.00000000 200.00000000 200.00000000 200.00000000 200.00000000 200.00000000 200.00000000 200.00000000 200.00000000 200.00000000 200.00000000 200.00000000 200.00000000 200.00000000 200.00000000 230.93696913 254.66444185 283.94872554 309.69529955 333.28111188 354.56310800 372.46365506 386.95320580 398.58332138 407.82639038 414.39109770 417.77996191 417.77996191 414.39109770 407.82639038 398.58332138 386.95320580 372.46365506 354.56310800 333.28111188 309.69529955 283.94872554 254.66444185 230.93696913 200.00000000 200.00000000 200.00000000 200.00000000 200.00000000 200.00000000 200.00000000 200.00000000 200.00000000 200.00000000 200.00000000 200.00000000 200.00000000 200.00000000 200.00000000 238.29415205 272.94979620 304.79336637 335.99337830 364.43898148 389.81211595 411.96504542 430.58197922 445.69348611 457.60260893 466.59149618 472.68630154 475.77101633 475.77101633 472.68630154 466.59149618 457.60260893 445.69348611 430.58197922 411.96504542 389.81211595 364.43898148 335.99337830 304.79336637 272.94979620 238.29415205 200.00000000 200.00000000 200.00000000 200.00000000 200.00000000 200.00000000 200.00000000 200.00000000 200.00000000 200.00000000 200.00000000 200.00000000 217.69546962 244.46112402 281.00052955 318.18027421 353.71762392 386.95549879 416.87199321 443.03340589 465.33573935 483.79837981 498.61738286 510.10773140 518.56335991 524.15395419 526.94088085 526.94088085 524.15395419 518.56335991 510.10773140 498.61738286 483.79837981 465.33573935 443.03340589 416.87199321 386.95549879 353.71762392 318.18027421 281.00052955 244.46112402 217.69546962 200.00000000 200.00000000 200.00000000 200.00000000 200.00000000 200.00000000 200.00000000 200.00000000 200.00000000 200.00000000 242.58462286 281.64184338 322.07165802 362.00223448 399.74504439 434.20112260 464.59798841 490.62443612 512.32176022 529.93415088 543.83000766 554.42067349 562.07186946 567.04622107 569.49855834 569.49855834 567.04622107 562.07186946 554.42067349 543.83000766 529.93415088 512.32176022 490.62443612 464.59798841 434.20112260 399.74504439 362.00223448 322.07165802 281.64184338 242.58462286 200.00000000 200.00000000 200.00000000 200.00000000 200.00000000 200.00000000 200.00000000 200.00000000 200.00000000 232.79981923 273.41339310 316.27600793 359.69693571 401.74012932 440.76033559 475.62890840 505.72954368 530.93073512 551.46342927 567.76893019 580.37617439 589.80644735 596.50346551 600.79600604 602.89256834 602.89256834 600.79600604 596.50346551 589.80644735 580.37617439 567.76893019 551.46342927 530.93073512 505.72954368 475.62890840 440.76033559 401.74012932 359.69693571 316.27600793 273.41339310 232.79981923 200.00000000 200.00000000 200.00000000 200.00000000 200.00000000 200.00000000 200.00000000 222.75900768 258.22816454 300.84892854 346.37245514 391.98528943 435.44505541 475.05688800 509.74886006 539.06154509 563.05631333 582.15822982 596.98442360 608.20183747 616.42732244 622.16825196 625.79783779 627.55502786 627.55502786 625.79783779 622.16825196 616.42732244 608.20183747 596.98442360 582.15822982 563.05631333 539.06154509 509.74886006 475.05688800 435.44505541 391.98528943 346.37245514 300.84892854 258.22816454 222.75900768 200.00000000 200.00000000 200.00000000 200.00000000 200.00000000 200.00000000 235.46658132 276.56745127 322.34817919 370.17483363 417.38830018 461.71400023 501.47238032 535.68171815 564.03493113 586.77030441 604.48295734 617.93370586 627.89665147 635.05985517 639.97457667 643.04052825 644.51222354 644.51222354 643.04052825 639.97457667 635.05985517 627.89665147 617.93370586 604.48295734 586.77030441 564.03493113 535.68171815 501.47238032 461.71400023 417.38830018 370.17483363 322.34817919 276.56745127 235.46658132 200.00000000 200.00000000 200.00000000 200.00000000 200.00000000 200.00000000 243.55144348 288.80870080 337.09116049 386.58555749 434.84461174 479.63911664 519.33424043 553.03472624 580.55600829 602.27132622 618.90073902 631.30605150 640.33335295 646.71614125 651.03144212 653.69246718 654.96034902 654.96034902 653.69246718 651.03144212 646.71614125 640.33335295 631.30605150 618.90073902 602.27132622 580.55600829 553.03472624 519.33424043 479.63911664 434.84461174 386.58555749 337.09116049 288.80870080 243.55144348 200.00000000 200.00000000 200.00000000 200.00000000 200.00000000 212.80462281 250.07186491 295.46157032 344.68017351 394.96390552 443.72200501 488.71197613 528.32239620 561.70807739 588.75244074 609.90156809 625.94139989 637.78559578 646.31608534 652.28808523 656.29011601 658.74067960 659.90300054 659.90300054 658.74067960 656.29011601 652.28808523 646.31608534 637.78559578 625.94139989 609.90156809 588.75244074 561.70807739 528.32239620 488.71197613 443.72200501 394.96390552 344.68017351 295.46157032 250.07186491 212.80462281 200.00000000 200.00000000 200.00000000 200.00000000 212.80462281 250.07186491 295.46157032 344.68017351 394.96390552 443.72200501 488.71197613 528.32239620 561.70807739 588.75244074 609.90156809 625.94139989 637.78559578 646.31608534 652.28808523 656.29011601 658.74067960 659.90300054 659.90300054 658.74067960 656.29011601 652.28808523 646.31608534 637.78559578 625.94139989 609.90156809 588.75244074 561.70807739 528.32239620 488.71197613 443.72200501 394.96390552 344.68017351 295.46157032 250.07186491 212.80462281 200.00000000 200.00000000 200.00000000 200.00000000 200.00000000 243.55144348 288.80870080 337.09116049 386.58555749 434.84461174 479.63911664 519.33424043 553.03472624 580.55600829 602.27132622 618.90073902 631.30605150 640.33335295 646.71614125 651.03144212 653.69246718 654.96034902 654.96034902 653.69246718 651.03144212 646.71614125 640.33335295 631.30605150 618.90073902 602.27132622 580.55600829 553.03472624 519.33424043 479.63911664 434.84461174 386.58555749 337.09116049 288.80870080 243.55144348 200.00000000 200.00000000 200.00000000 200.00000000 200.00000000 200.00000000 235.46658132 276.56745127 322.34817919 370.17483363 417.38830018 461.71400023 501.47238032 535.68171815 564.03493113 586.77030441 604.48295734 617.93370586 627.89665147 635.05985517 639.97457667 643.04052825 644.51222354 644.51222354 643.04052825 639.97457667 635.05985517 627.89665147 617.93370586 604.48295734 586.77030441 564.03493113 535.68171815 501.47238032 461.71400023 417.38830018 370.17483363 322.34817919 276.56745127 235.46658132 200.00000000 200.00000000 200.00000000 200.00000000 200.00000000 200.00000000 222.75900768 258.22816454 300.84892854 346.37245514 391.98528943 435.44505541 475.05688800 509.74886006 539.06154509 563.05631333 582.15822982 596.98442360 608.20183747 616.42732244 622.16825196 625.79783779 627.55502786 627.55502786 625.79783779 622.16825196 616.42732244 608.20183747 596.98442360 582.15822982 563.05631333 539.06154509 509.74886006 475.05688800 435.44505541 391.98528943 346.37245514 300.84892854 258.22816454 222.75900768 200.00000000 200.00000000 200.00000000 200.00000000 200.00000000 200.00000000 200.00000000 232.79981923 273.41339310 316.27600793 359.69693571 401.74012932 440.76033559 475.62890840 505.72954368 530.93073512 551.46342927 567.76893019 580.37617439 589.80644735 596.50346551 600.79600604 602.89256834 602.89256834 600.79600604 596.50346551 589.80644735 580.37617439 567.76893019 551.46342927 530.93073512 505.72954368 475.62890840 440.76033559 401.74012932 359.69693571 316.27600793 273.41339310 232.79981923 200.00000000 200.00000000 200.00000000 200.00000000 200.00000000 200.00000000 200.00000000 200.00000000 200.00000000 242.58462286 281.64184338 322.07165802 362.00223448 399.74504439 434.20112260 464.59798841 490.62443612 512.32176022 529.93415088 543.83000766 554.42067349 562.07186946 567.04622107 569.49855834 569.49855834 567.04622107 562.07186946 554.42067349 543.83000766 529.93415088 512.32176022 490.62443612 464.59798841 434.20112260 399.74504439 362.00223448 322.07165802 281.64184338 242.58462286 200.00000000 200.00000000 200.00000000 200.00000000 200.00000000 200.00000000 200.00000000 200.00000000 200.00000000 200.00000000 217.69546962 244.46112402 281.00052955 318.18027421 353.71762392 386.95549879 416.87199321 443.03340589 465.33573935 483.79837981 498.61738286 510.10773140 518.56335991 524.15395419 526.94088085 526.94088085 524.15395419 518.56335991 510.10773140 498.61738286 483.79837981 465.33573935 443.03340589 416.87199321 386.95549879 353.71762392 318.18027421 281.00052955 244.46112402 217.69546962 200.00000000 200.00000000 200.00000000 200.00000000 200.00000000 200.00000000 200.00000000 200.00000000 200.00000000 200.00000000 200.00000000 200.00000000 238.29415205 272.94979620 304.79336637 335.99337830 364.43898148 389.81211595 411.96504542 430.58197922 445.69348611 457.60260893 466.59149618 472.68630154 475.77101633 475.77101633 472.68630154 466.59149618 457.60260893 445.69348611 430.58197922 411.96504542 389.81211595 364.43898148 335.99337830 304.79336637 272.94979620 238.29415205 200.00000000 200.00000000 200.00000000 200.00000000 200.00000000 200.00000000 200.00000000 200.00000000 200.00000000 200.00000000 200.00000000 200.00000000 200.00000000 200.00000000 200.00000000 230.93696913 254.66444185 283.94872554 309.69529955 333.28111188 354.56310800 372.46365506 386.95320580 398.58332138 407.82639038 414.39109770 417.77996191 417.77996191 414.39109770 407.82639038 398.58332138 386.95320580 372.46365506 354.56310800 333.28111188 309.69529955 283.94872554 254.66444185 230.93696913 200.00000000 200.00000000 200.00000000 200.00000000 200.00000000 200.00000000 200.00000000 200.00000000 200.00000000 200.00000000 200.00000000 200.00000000 200.00000000 200.00000000 200.00000000 200.00000000 200.00000000 200.00000000 234.56164131 254.98429752 276.33455254 296.43607004 312.45968219 324.95474586 335.32664985 344.89631171 352.26857001 356.10292668 356.10292668 352.26857001 344.89631171 335.32664985 324.95474586 312.45968219 296.43607004 276.33455254 254.98429752 234.56164131 200.00000000 200.00000000 200.00000000 200.00000000 200.00000000 200.00000000 200.00000000 200.00000000 200.00000000 200.00000000 200.00000000 200.00000000 200.00000000 200.00000000 200.00000000 200.00000000 200.00000000 200.00000000 200.00000000 200.00000000 200.00000000 200.00000000 224.03427949 242.46196940 254.08594767 262.21535697 269.67558916 281.36374525 290.75971573 295.29528415 295.29528415 290.75971573 281.36374525 269.67558916 262.21535697 254.08594767 242.46196940 224.03427949 200.00000000 200.00000000 200.00000000 200.00000000 200.00000000 200.00000000 200.00000000 200.00000000 200.00000000 200.00000000 200.00000000 200.00000000 200.00000000 200.00000000 200.00000000 200.00000000 200.00000000 200.00000000 200.00000000 200.00000000 200.00000000 200.00000000 200.00000000 200.00000000 200.00000000 200.00000000 200.00000000 200.00000000 200.00000000 223.85751811 236.69661145 241.39933200 241.39933200 236.69661145 223.85751811 200.00000000 200.00000000 200.00000000 200.00000000 200.00000000 200.00000000 200.00000000 200.00000000 200.00000000 200.00000000 200.00000000 200.00000000 200.00000000 200.00000000 200.00000000 200.00000000 200.00000000 200.00000000 200.00000000 200.00000000 200.00000000 200.00000000 200.00000000 200.00000000 200.00000000 200.00000000 200.00000000 200.00000000 200.00000000 200.00000000 200.00000000 200.00000000 200.00000000 200.00000000 200.00000000 200.00000000 200.00000000 200.00000000 200.00000000 200.00000000 200.00000000 200.00000000 200.00000000 200.00000000 200.00000000 200.00000000 200.00000000 200.00000000 200.00000000 200.00000000 200.00000000 200.00000000 200.00000000 200.00000000 200.00000000 200.00000000 200.00000000 200.00000000 200.00000000 200.00000000 200.00000000 200.00000000 200.00000000 200.00000000 200.00000000 200.00000000 200.00000000 200.00000000 200.00000000 200.00000000 200.00000000 200.00000000 200.00000000 200.00000000 200.00000000 200.00000000 200.00000000 200.00000000 200.00000000 200.00000000 200.00000000 200.00000000 200.00000000 200.00000000 200.00000000 200.00000000 200.00000000 200.00000000 200.00000000 200.00000000 200.00000000 200.00000000 200.00000000 200.00000000 200.00000000 200.00000000 200.00000000 200.00000000 200.00000000 200.00000000 200.00000000 200.00000000 200.00000000 200.00000000 200.00000000 200.00000000 200.00000000 200.00000000 200.00000000 200.00000000 200.00000000 200.00000000 200.00000000 200.00000000 200.00000000 200.00000000 200.00000000 200.00000000 200.00000000 200.00000000 200.00000000 200.00000000 200.00000000 200.00000000 200.00000000 200.00000000 200.00000000 200.00000000 200.00000000 200.00000000 200.00000000 200.00000000 200.00000000 200.00000000 200.00000000 200.00000000 200.00000000 200.00000000 200.00000000 200.00000000 200.00000000 200.00000000 200.00000000 200.00000000 200.00000000 200.00000000 200.00000000 200.00000000 200.00000000 200.00000000 200.00000000 200.00000000 200.00000000 200.00000000 200.00000000 200.00000000 200.00000000 200.00000000 200.00000000 200.00000000 200.00000000 200.00000000 200.00000000 200.00000000 200.00000000 200.00000000 200.00000000 200.00000000 200.00000000 200.00000000 200.00000000 200.00000000 200.00000000 200.00000000 200.00000000 200.00000000 200.00000000 200.00000000 200.00000000 200.00000000 200.00000000 200.00000000 200.00000000 200.00000000 200.00000000 200.00000000 200.00000000 200.00000000 200.00000000 200.00000000 200.00000000 200.00000000 200.00000000 200.00000000 200.00000000 200.00000000 200.00000000 200.00000000 200.00000000 200.00000000 200.00000000 200.00000000 200.00000000 200.00000000 200.00000000 200.00000000 200.00000000 200.00000000 200.00000000 200.00000000 200.00000000 200.00000000 200.00000000 200.00000000 200.00000000 200.00000000 200.00000000 200.00000000 200.00000000 200.00000000 200.00000000 200.00000000 200.00000000 200.00000000 200.00000000 200.00000000 200.00000000 200.00000000 200.00000000 200.00000000 200.00000000 200.00000000 200.00000000 200.00000000 200.00000000 200.00000000 200.00000000 200.00000000 200.00000000 200.00000000 200.00000000 200.00000000 200.00000000 200.00000000 200.00000000 200.00000000 200.00000000 200.00000000 200.00000000 200.00000000 200.00000000 200.00000000 200.00000000 200.00000000 200.00000000 200.00000000 200.00000000 200.00000000 200.00000000 200.00000000 200.00000000 200.00000000 200.00000000 200.00000000 200.00000000 200.00000000 200.00000000 200.00000000 200.00000000 200.00000000 200.00000000 200.00000000 200.00000000 200.00000000 200.00000000 200.00000000 200.00000000 200.00000000 200.00000000 200.00000000 200.00000000 200.00000000 200.00000000 200.00000000 200.00000000 200.00000000 200.00000000 200.00000000 200.00000000 200.00000000 200.00000000 200.00000000 200.00000000 200.00000000 200.00000000 200.00000000 200.00000000 200.00000000 200.00000000 200.00000000 200.00000000 200.00000000 200.00000000 200.00000000 200.00000000 200.00000000 200.00000000 200.00000000 200.00000000 200.00000000 200.00000000 200.00000000 200.00000000 200.00000000 200.00000000 200.00000000 200.00000000 200.00000000 200.00000000 200.00000000 200.00000000 200.00000000 200.00000000 200.00000000 200.00000000 200.00000000 200.00000000 200.00000000 200.00000000 200.00000000 200.00000000 200.00000000 200.00000000 200.00000000 200.00000000 200.00000000 200.00000000 