# vtk DataFile Version 3.0
VTK - Matlab export
ASCII
DATASET STRUCTURED_POINTS
DIMENSIONS 40 40 1
SPACING 1 1 1
ORIGIN 0 0 0
POINT_DATA 1600
SCALARS Proofstrength float 1
LOOKUP_TABLE default
140.71398941 140.71398941 140.71398941 140.71398941 140.71398941 140.71398941 140.71398941 140.71398941 140.71398941 140.71398941 140.71398941 140.71398941 140.71398941 140.71398941 140.71398941 140.71398941 140.71398941 140.71398941 140.71398941 140.71398941 140.71398941 140.71398941 140.71398941 140.71398941 140.71398941 140.71398941 140.71398941 140.71398941 140.71398941 140.71398941 140.71398941 140.71398941 140.71398941 140.71398941 140.71398941 140.71398941 140.71398941 140.71398941 140.71398941 140.71398941 140.71398941 140.71398941 140.71398941 140.71398941 140.71398941 140.71398941 140.71398941 140.71398941 140.71398941 140.71398941 140.71398941 140.71398941 140.71398941 140.71398941 140.71398941 140.71398941 140.71398941 140.71398941 140.71398941 140.71398941 140.71398941 140.71398941 140.71398941 140.71398941 140.71398941 140.71398941 140.71398941 140.71398941 140.71398941 140.71398941 140.71398941 140.71398941 140.71398941 140.71398941 140.71398941 140.71398941 140.71398941 140.71398941 140.71398941 140.71398941 140.71398941 140.71398941 140.71398941 140.71398941 140.71398941 140.71398941 140.71398941 140.71398941 140.71398941 140.71398941 140.71398941 140.71398941 140.71398941 140.71398941 140.71398941 140.71398941 140.71398941 140.71398941 140.71398941 140.71398941 140.71398941 140.71398941 140.71398941 140.71398941 140.71398941 140.71398941 140.71398941 140.71398941 140.71398941 140.71398941 140.71398941 140.71398941 140.71398941 140.71398941 140.71398941 140.71398941 140.71398941 140.71398941 140.71398941 140.71398941 140.71398941 140.71398941 140.71398941 140.71398941 140.71398941 140.71398941 140.71398941 140.71398941 140.71398941 140.71398941 140.71398941 140.71398941 140.71398941 140.71398941 140.71398941 140.71398941 140.71398941 140.71398941 140.71398941 140.71398941 140.71398941 140.71398941 140.71398941 140.71398941 140.71398941 140.71398941 140.71398941 140.71398941 140.71398941 140.71398941 140.71398941 140.71398941 140.71398941 140.71398941 140.71398941 140.71398941 140.71398941 140.71398941 140.71398941 140.71398941 140.71398941 140.71398941 140.71398941 140.71398941 140.71398941 140.71398941 140.71398941 140.71398941 140.71398941 140.71398941 140.71398941 140.71398941 140.71398941 140.71398941 140.71398941 140.71398941 140.71398941 140.71398941 140.71398941 140.71398941 140.71398941 140.71398941 140.71398941 140.71398941 140.71398941 140.71398941 140.71398941 140.71398941 140.71398941 140.71398941 140.71398941 140.71398941 140.71398941 140.71398941 140.71398941 140.71398941 140.71398941 140.71398941 140.71398941 140.71398941 140.71398941 140.71398941 140.71398941 140.71398941 140.71398941 140.71398941 140.71398941 140.71398941 140.71398941 140.71398941 140.71398941 140.71398941 140.71398941 140.71398941 140.71398941 140.71398941 140.71398941 140.71398941 140.71398941 140.71398941 140.71398941 140.71398941 140.71398941 140.71398941 140.71398941 140.71398941 140.71398941 140.71398941 140.71398941 140.71398941 140.71398941 140.71398941 140.71398941 140.71398941 140.71398941 140.71398941 140.71398941 140.71398941 140.71398941 140.71398941 140.71398941 140.71398941 140.71398941 140.71398941 140.71398941 140.71398941 140.71398941 140.71398941 140.71398941 140.71398941 140.71398941 140.71398941 140.71398941 140.71398941 140.71398941 140.71398941 140.71398941 140.71398941 140.71398941 140.71398941 140.71398941 140.71398941 140.71398941 140.71398941 140.71398941 140.71398941 140.71398941 140.71398941 140.71398941 140.71398941 140.71398941 140.71398941 140.71398941 140.71398941 140.71398941 140.71398941 140.71398941 140.71398941 140.71398941 140.71398941 140.71398941 140.71398941 140.71398941 140.71398941 140.71398941 140.71398941 140.71398941 140.71398941 140.71398941 140.71398941 140.71398941 140.71398941 140.71398941 140.71398941 140.71398941 140.71398941 140.71398941 140.71398941 140.71398941 140.71398941 140.71398941 140.71398941 140.71398941 140.71398941 140.71398941 140.71398941 140.71398941 140.71398941 140.71398941 140.71398941 140.71398941 140.71398941 140.71398941 140.71398941 140.71398941 140.71398941 140.71398941 140.71398941 140.71398941 140.71398941 140.71398941 140.71398941 140.71398941 140.71398941 140.71398941 140.71398941 140.71398941 140.71398941 140.71398941 140.71398941 140.71398941 140.71398941 140.71398941 140.71398941 140.71398941 140.71398941 140.71398941 140.72175285 140.72614453 140.72781198 140.72781198 140.72614453 140.72175285 140.71398941 140.71398941 140.71398941 140.71398941 140.71398941 140.71398941 140.71398941 140.71398941 140.71398941 140.71398941 140.71398941 140.71398941 140.71398941 140.71398941 140.71398941 140.71398941 140.71398941 140.71398941 140.71398941 140.71398941 140.71398941 140.71398941 140.71398941 140.71398941 140.71398941 140.71398941 140.71398941 140.71398941 140.71398941 140.72218239 140.72827600 140.73173556 140.73380420 140.73567099 140.73920118 140.74223025 140.74373127 140.74373127 140.74223025 140.73920118 140.73567099 140.73380420 140.73173556 140.72827600 140.72218239 140.71398941 140.71398941 140.71398941 140.71398941 140.71398941 140.71398941 140.71398941 140.71398941 140.71398941 140.71398941 140.71398941 140.71398941 140.71398941 140.71398941 140.71398941 140.71398941 140.71398941 140.71398941 140.71398941 140.71398941 140.71398941 140.71398941 140.72610697 140.73270386 140.73911256 140.74465292 140.74838867 140.75073297 140.75250160 140.75442905 140.75611819 140.75704223 140.75704223 140.75611819 140.75442905 140.75250160 140.75073297 140.74838867 140.74465292 140.73911256 140.73270386 140.72610697 140.71398941 140.71398941 140.71398941 140.71398941 140.71398941 140.71398941 140.71398941 140.71398941 140.71398941 140.71398941 140.71398941 140.71398941 140.71398941 140.71398941 140.71398941 140.71398941 140.71398941 140.71398941 140.72529245 140.73319108 140.74225930 140.74903874 140.75419332 140.75797762 140.76030973 140.76153558 140.76222492 140.76283419 140.76338911 140.76371681 140.76371681 140.76338911 140.76283419 140.76222492 140.76153558 140.76030973 140.75797762 140.75419332 140.74903874 140.74225930 140.73319108 140.72529245 140.71398941 140.71398941 140.71398941 140.71398941 140.71398941 140.71398941 140.71398941 140.71398941 140.71398941 140.71398941 140.71398941 140.71398941 140.71398941 140.71398941 140.71398941 140.72824241 140.73992118 140.74890978 140.75607030 140.76086230 140.76364028 140.76490477 140.76504366 140.76450341 140.76374795 140.76311794 140.76273043 140.76255726 140.76255726 140.76273043 140.76311794 140.76374795 140.76450341 140.76504366 140.76490477 140.76364028 140.76086230 140.75607030 140.74890978 140.73992118 140.72824241 140.71398941 140.71398941 140.71398941 140.71398941 140.71398941 140.71398941 140.71398941 140.71398941 140.71398941 140.71398941 140.71398941 140.71398941 140.72127618 140.73135096 140.74356153 140.75368133 140.76072136 140.76486935 140.76646041 140.76615698 140.76467349 140.76259169 140.76037450 140.75837610 140.75681987 140.75579135 140.75528761 140.75528761 140.75579135 140.75681987 140.75837610 140.76037450 140.76259169 140.76467349 140.76615698 140.76646041 140.76486935 140.76072136 140.75368133 140.74356153 140.73135096 140.72127618 140.71398941 140.71398941 140.71398941 140.71398941 140.71398941 140.71398941 140.71398941 140.71398941 140.71398941 140.71398941 140.73154994 140.74536820 140.75649042 140.76392198 140.76749926 140.76784428 140.76588490 140.76260316 140.75882069 140.75510610 140.75180838 140.74911965 140.74712089 140.74581724 140.74517854 140.74517854 140.74581724 140.74712089 140.74911965 140.75180838 140.75510610 140.75882069 140.76260316 140.76588490 140.76784428 140.76749926 140.76392198 140.75649042 140.74536820 140.73154994 140.71398941 140.71398941 140.71398941 140.71398941 140.71398941 140.71398941 140.71398941 140.71398941 140.71398941 140.72850092 140.74428830 140.75729902 140.76595973 140.76976403 140.76930478 140.76585274 140.76079853 140.75529028 140.75008925 140.74559397 140.74194998 140.73916211 140.73717160 140.73590163 140.73528558 140.73528558 140.73590163 140.73717160 140.73916211 140.74194998 140.74559397 140.75008925 140.75529028 140.76079853 140.76585274 140.76930478 140.76976403 140.76595973 140.75729902 140.74428830 140.72850092 140.71398941 140.71398941 140.71398941 140.71398941 140.71398941 140.71398941 140.71398941 140.72480176 140.74008199 140.75510997 140.76623066 140.77172825 140.77166923 140.76741612 140.76083838 140.75360892 140.74685442 140.74113521 140.73659954 140.73316991 140.73068465 140.72897819 140.72791637 140.72740818 140.72740818 140.72791637 140.72897819 140.73068465 140.73316991 140.73659954 140.74113521 140.74685442 140.75360892 140.76083838 140.76741612 140.77166923 140.77172825 140.76623066 140.75510997 140.74008199 140.72480176 140.71398941 140.71398941 140.71398941 140.71398941 140.71398941 140.71398941 140.73093829 140.74823345 140.76287780 140.77199530 140.77442966 140.77098484 140.76373727 140.75500033 140.74654936 140.73936012 140.73373592 140.72957703 140.72661968 140.72458410 140.72324087 140.72242765 140.72204449 140.72204449 140.72242765 140.72324087 140.72458410 140.72661968 140.72957703 140.73373592 140.73936012 140.74654936 140.75500033 140.76373727 140.77098484 140.77442966 140.77199530 140.76287780 140.74823345 140.73093829 140.71398941 140.71398941 140.71398941 140.71398941 140.71398941 140.71398941 140.73481118 140.75344726 140.76769256 140.77515454 140.77522701 140.76934997 140.76013179 140.75015128 140.74117370 140.73399571 140.72869750 140.72499241 140.72249268 140.72085089 140.71980831 140.71919445 140.71890998 140.71890998 140.71919445 140.71980831 140.72085089 140.72249268 140.72499241 140.72869750 140.73399571 140.74117370 140.75015128 140.76013179 140.76934997 140.77522701 140.77515454 140.76769256 140.75344726 140.73481118 140.71398941 140.71398941 140.71398941 140.71398941 140.71398941 140.72034596 140.73802061 140.75624601 140.77000248 140.77648696 140.77527839 140.76814796 140.75797618 140.74745693 140.73832101 140.73124978 140.72619711 140.72277863 140.72054695 140.71912593 140.71824729 140.71774029 140.71750824 140.71750824 140.71774029 140.71824729 140.71912593 140.72054695 140.72277863 140.72619711 140.73124978 140.73832101 140.74745693 140.75797618 140.76814796 140.77527839 140.77648696 140.77000248 140.75624601 140.73802061 140.72034596 140.71398941 140.71398941 140.71398941 140.71398941 140.72034596 140.73802061 140.75624601 140.77000248 140.77648696 140.77527839 140.76814796 140.75797618 140.74745693 140.73832101 140.73124978 140.72619711 140.72277863 140.72054695 140.71912593 140.71824729 140.71774029 140.71750824 140.71750824 140.71774029 140.71824729 140.71912593 140.72054695 140.72277863 140.72619711 140.73124978 140.73832101 140.74745693 140.75797618 140.76814796 140.77527839 140.77648696 140.77000248 140.75624601 140.73802061 140.72034596 140.71398941 140.71398941 140.71398941 140.71398941 140.71398941 140.73481118 140.75344726 140.76769256 140.77515454 140.77522701 140.76934997 140.76013179 140.75015128 140.74117370 140.73399571 140.72869750 140.72499241 140.72249268 140.72085089 140.71980831 140.71919445 140.71890998 140.71890998 140.71919445 140.71980831 140.72085089 140.72249268 140.72499241 140.72869750 140.73399571 140.74117370 140.75015128 140.76013179 140.76934997 140.77522701 140.77515454 140.76769256 140.75344726 140.73481118 140.71398941 140.71398941 140.71398941 140.71398941 140.71398941 140.71398941 140.73093829 140.74823345 140.76287780 140.77199530 140.77442966 140.77098484 140.76373727 140.75500033 140.74654936 140.73936012 140.73373592 140.72957703 140.72661968 140.72458410 140.72324087 140.72242765 140.72204449 140.72204449 140.72242765 140.72324087 140.72458410 140.72661968 140.72957703 140.73373592 140.73936012 140.74654936 140.75500033 140.76373727 140.77098484 140.77442966 140.77199530 140.76287780 140.74823345 140.73093829 140.71398941 140.71398941 140.71398941 140.71398941 140.71398941 140.71398941 140.72480176 140.74008199 140.75510997 140.76623066 140.77172825 140.77166923 140.76741612 140.76083838 140.75360892 140.74685442 140.74113521 140.73659954 140.73316991 140.73068465 140.72897819 140.72791637 140.72740818 140.72740818 140.72791637 140.72897819 140.73068465 140.73316991 140.73659954 140.74113521 140.74685442 140.75360892 140.76083838 140.76741612 140.77166923 140.77172825 140.76623066 140.75510997 140.74008199 140.72480176 140.71398941 140.71398941 140.71398941 140.71398941 140.71398941 140.71398941 140.71398941 140.72850092 140.74428830 140.75729902 140.76595973 140.76976403 140.76930478 140.76585274 140.76079853 140.75529028 140.75008925 140.74559397 140.74194998 140.73916211 140.73717160 140.73590163 140.73528558 140.73528558 140.73590163 140.73717160 140.73916211 140.74194998 140.74559397 140.75008925 140.75529028 140.76079853 140.76585274 140.76930478 140.76976403 140.76595973 140.75729902 140.74428830 140.72850092 140.71398941 140.71398941 140.71398941 140.71398941 140.71398941 140.71398941 140.71398941 140.71398941 140.71398941 140.73154994 140.74536820 140.75649042 140.76392198 140.76749926 140.76784428 140.76588490 140.76260316 140.75882069 140.75510610 140.75180838 140.74911965 140.74712089 140.74581724 140.74517854 140.74517854 140.74581724 140.74712089 140.74911965 140.75180838 140.75510610 140.75882069 140.76260316 140.76588490 140.76784428 140.76749926 140.76392198 140.75649042 140.74536820 140.73154994 140.71398941 140.71398941 140.71398941 140.71398941 140.71398941 140.71398941 140.71398941 140.71398941 140.71398941 140.71398941 140.72127618 140.73135096 140.74356153 140.75368133 140.76072136 140.76486935 140.76646041 140.76615698 140.76467349 140.76259169 140.76037450 140.75837610 140.75681987 140.75579135 140.75528761 140.75528761 140.75579135 140.75681987 140.75837610 140.76037450 140.76259169 140.76467349 140.76615698 140.76646041 140.76486935 140.76072136 140.75368133 140.74356153 140.73135096 140.72127618 140.71398941 140.71398941 140.71398941 140.71398941 140.71398941 140.71398941 140.71398941 140.71398941 140.71398941 140.71398941 140.71398941 140.71398941 140.72824241 140.73992118 140.74890978 140.75607030 140.76086230 140.76364028 140.76490477 140.76504366 140.76450341 140.76374795 140.76311794 140.76273043 140.76255726 140.76255726 140.76273043 140.76311794 140.76374795 140.76450341 140.76504366 140.76490477 140.76364028 140.76086230 140.75607030 140.74890978 140.73992118 140.72824241 140.71398941 140.71398941 140.71398941 140.71398941 140.71398941 140.71398941 140.71398941 140.71398941 140.71398941 140.71398941 140.71398941 140.71398941 140.71398941 140.71398941 140.71398941 140.72529245 140.73319108 140.74225930 140.74903874 140.75419332 140.75797762 140.76030973 140.76153558 140.76222492 140.76283419 140.76338911 140.76371681 140.76371681 140.76338911 140.76283419 140.76222492 140.76153558 140.76030973 140.75797762 140.75419332 140.74903874 140.74225930 140.73319108 140.72529245 140.71398941 140.71398941 140.71398941 140.71398941 140.71398941 140.71398941 140.71398941 140.71398941 140.71398941 140.71398941 140.71398941 140.71398941 140.71398941 140.71398941 140.71398941 140.71398941 140.71398941 140.71398941 140.72610697 140.73270386 140.73911256 140.74465292 140.74838867 140.75073297 140.75250160 140.75442905 140.75611819 140.75704223 140.75704223 140.75611819 140.75442905 140.75250160 140.75073297 140.74838867 140.74465292 140.73911256 140.73270386 140.72610697 140.71398941 140.71398941 140.71398941 140.71398941 140.71398941 140.71398941 140.71398941 140.71398941 140.71398941 140.71398941 140.71398941 140.71398941 140.71398941 140.71398941 140.71398941 140.71398941 140.71398941 140.71398941 140.71398941 140.71398941 140.71398941 140.71398941 140.72218239 140.72827600 140.73173556 140.73380420 140.73567099 140.73920118 140.74223025 140.74373127 140.74373127 140.74223025 140.73920118 140.73567099 140.73380420 140.73173556 140.72827600 140.72218239 140.71398941 140.71398941 140.71398941 140.71398941 140.71398941 140.71398941 140.71398941 140.71398941 140.71398941 140.71398941 140.71398941 140.71398941 140.71398941 140.71398941 140.71398941 140.71398941 140.71398941 140.71398941 140.71398941 140.71398941 140.71398941 140.71398941 140.71398941 140.71398941 140.71398941 140.71398941 140.71398941 140.71398941 140.71398941 140.72175285 140.72614453 140.72781198 140.72781198 140.72614453 140.72175285 140.71398941 140.71398941 140.71398941 140.71398941 140.71398941 140.71398941 140.71398941 140.71398941 140.71398941 140.71398941 140.71398941 140.71398941 140.71398941 140.71398941 140.71398941 140.71398941 140.71398941 140.71398941 140.71398941 140.71398941 140.71398941 140.71398941 140.71398941 140.71398941 140.71398941 140.71398941 140.71398941 140.71398941 140.71398941 140.71398941 140.71398941 140.71398941 140.71398941 140.71398941 140.71398941 140.71398941 140.71398941 140.71398941 140.71398941 140.71398941 140.71398941 140.71398941 140.71398941 140.71398941 140.71398941 140.71398941 140.71398941 140.71398941 140.71398941 140.71398941 140.71398941 140.71398941 140.71398941 140.71398941 140.71398941 140.71398941 140.71398941 140.71398941 140.71398941 140.71398941 140.71398941 140.71398941 140.71398941 140.71398941 140.71398941 140.71398941 140.71398941 140.71398941 140.71398941 140.71398941 140.71398941 140.71398941 140.71398941 140.71398941 140.71398941 140.71398941 140.71398941 140.71398941 140.71398941 140.71398941 140.71398941 140.71398941 140.71398941 140.71398941 140.71398941 140.71398941 140.71398941 140.71398941 140.71398941 140.71398941 140.71398941 140.71398941 140.71398941 140.71398941 140.71398941 140.71398941 140.71398941 140.71398941 140.71398941 140.71398941 140.71398941 140.71398941 140.71398941 140.71398941 140.71398941 140.71398941 140.71398941 140.71398941 140.71398941 140.71398941 140.71398941 140.71398941 140.71398941 140.71398941 140.71398941 140.71398941 140.71398941 140.71398941 140.71398941 140.71398941 140.71398941 140.71398941 140.71398941 140.71398941 140.71398941 140.71398941 140.71398941 140.71398941 140.71398941 140.71398941 140.71398941 140.71398941 140.71398941 140.71398941 140.71398941 140.71398941 140.71398941 140.71398941 140.71398941 140.71398941 140.71398941 140.71398941 140.71398941 140.71398941 140.71398941 140.71398941 140.71398941 140.71398941 140.71398941 140.71398941 140.71398941 140.71398941 140.71398941 140.71398941 140.71398941 140.71398941 140.71398941 140.71398941 140.71398941 140.71398941 140.71398941 140.71398941 140.71398941 140.71398941 140.71398941 140.71398941 140.71398941 140.71398941 140.71398941 140.71398941 140.71398941 140.71398941 140.71398941 140.71398941 140.71398941 140.71398941 140.71398941 140.71398941 140.71398941 140.71398941 140.71398941 140.71398941 140.71398941 140.71398941 140.71398941 140.71398941 140.71398941 140.71398941 140.71398941 140.71398941 140.71398941 140.71398941 140.71398941 140.71398941 140.71398941 140.71398941 140.71398941 140.71398941 140.71398941 140.71398941 140.71398941 140.71398941 140.71398941 140.71398941 140.71398941 140.71398941 140.71398941 140.71398941 140.71398941 140.71398941 140.71398941 140.71398941 140.71398941 140.71398941 140.71398941 140.71398941 140.71398941 140.71398941 140.71398941 140.71398941 140.71398941 140.71398941 140.71398941 140.71398941 140.71398941 140.71398941 140.71398941 140.71398941 140.71398941 140.71398941 140.71398941 140.71398941 140.71398941 140.71398941 140.71398941 140.71398941 140.71398941 140.71398941 140.71398941 140.71398941 140.71398941 140.71398941 140.71398941 140.71398941 140.71398941 140.71398941 140.71398941 140.71398941 140.71398941 140.71398941 140.71398941 140.71398941 140.71398941 140.71398941 140.71398941 140.71398941 140.71398941 140.71398941 140.71398941 140.71398941 140.71398941 140.71398941 140.71398941 140.71398941 140.71398941 140.71398941 140.71398941 140.71398941 140.71398941 140.71398941 140.71398941 140.71398941 140.71398941 140.71398941 140.71398941 140.71398941 140.71398941 140.71398941 140.71398941 140.71398941 140.71398941 140.71398941 140.71398941 140.71398941 140.71398941 140.71398941 140.71398941 140.71398941 140.71398941 140.71398941 140.71398941 140.71398941 140.71398941 140.71398941 140.71398941 140.71398941 140.71398941 140.71398941 140.71398941 140.71398941 140.71398941 140.71398941 140.71398941 140.71398941 140.71398941 140.71398941 140.71398941 140.71398941 140.71398941 140.71398941 140.71398941 140.71398941 140.71398941 140.71398941 140.71398941 140.71398941 140.71398941 140.71398941 140.71398941 140.71398941 140.71398941 140.71398941 140.71398941 140.71398941 140.71398941 140.71398941 140.71398941 140.71398941 140.71398941 140.71398941 140.71398941 140.71398941 140.71398941 140.71398941 140.71398941 140.71398941 140.71398941 