# vtk DataFile Version 3.0
VTK - Matlab export
ASCII
DATASET STRUCTURED_POINTS
DIMENSIONS 40 40 1
SPACING 1 1 1
ORIGIN 0 0 0
POINT_DATA 1600
SCALARS Proofstrength float 1
LOOKUP_TABLE default
140.71398941 140.71398941 140.71398941 140.71398941 140.71398941 140.71398941 140.71398941 140.71398941 140.71398941 140.71398941 140.71398941 140.71398941 140.71398941 140.71398941 140.71398941 140.71398941 140.71398941 140.71398941 140.71398941 140.71398941 140.71398941 140.71398941 140.71398941 140.71398941 140.71398941 140.71398941 140.71398941 140.71398941 140.71398941 140.71398941 140.71398941 140.71398941 140.71398941 140.71398941 140.71398941 140.71398941 140.71398941 140.71398941 140.71398941 140.71398941 140.71398941 140.71398941 140.71398941 140.71398941 140.71398941 140.71398941 140.71398941 140.71398941 140.71398941 140.71398941 140.71398941 140.71398941 140.71398941 140.71398941 140.71398941 140.71398941 140.71398941 140.71398941 140.71398941 140.71398941 140.71398941 140.71398941 140.71398941 140.71398941 140.71398941 140.71398941 140.71398941 140.71398941 140.71398941 140.71398941 140.71398941 140.71398941 140.71398941 140.71398941 140.71398941 140.71398941 140.71398941 140.71398941 140.71398941 140.71398941 140.71398941 140.71398941 140.71398941 140.71398941 140.71398941 140.71398941 140.71398941 140.71398941 140.71398941 140.71398941 140.71398941 140.71398941 140.71398941 140.71398941 140.71398941 140.71398941 140.71398941 140.71398941 140.71398941 140.71398941 140.71398941 140.71398941 140.71398941 140.71398941 140.71398941 140.71398941 140.71398941 140.71398941 140.71398941 140.71398941 140.71398941 140.71398941 140.71398941 140.71398941 140.71398941 140.71398941 140.71398941 140.71398941 140.71398941 140.71398941 140.71398941 140.71398941 140.71398941 140.71398941 140.71398941 140.71398941 140.71398941 140.71398941 140.71398941 140.71398941 140.71398941 140.71398941 140.71398941 140.71398941 140.71398941 140.71398941 140.71398941 140.71398941 140.71398941 140.71398941 140.71398941 140.71398941 140.71398941 140.71398941 140.71398941 140.71398941 140.71398941 140.71398941 140.71398941 140.71398941 140.71398941 140.71398941 140.71398941 140.71398941 140.71398941 140.71398941 140.71398941 140.71398941 140.71398941 140.71398941 140.71398941 140.71398941 140.71398941 140.71398941 140.71398941 140.71398941 140.71398941 140.71398941 140.71398941 140.71398941 140.71398941 140.71398941 140.71398941 140.71398941 140.71398941 140.71398941 140.71398941 140.71398941 140.71398941 140.71398941 140.71398941 140.71398941 140.71398941 140.71398941 140.71398941 140.71398941 140.71398941 140.71398941 140.71398941 140.71398941 140.71398941 140.71398941 140.71398941 140.71398941 140.71398941 140.71398941 140.71398941 140.71398941 140.71398941 140.71398941 140.71398941 140.71398941 140.71398941 140.71398941 140.71398941 140.71398941 140.71398941 140.71398941 140.71398941 140.71398941 140.71398941 140.71398941 140.71398941 140.71398941 140.71398941 140.71398941 140.71398941 140.71398941 140.71398941 140.71398941 140.71398941 140.71398941 140.71398941 140.71398941 140.71398941 140.71398941 140.71398941 140.71398941 140.71398941 140.71398941 140.71398941 140.71398941 140.71398941 140.71398941 140.71398941 140.71398941 140.71398941 140.71398941 140.71398941 140.71398941 140.71398941 140.71398941 140.71398941 140.71398941 140.71398941 140.71398941 140.71398941 140.71398941 140.71398941 140.71398941 140.71398941 140.71398941 140.71398941 140.71398941 140.71398941 140.71398941 140.71398941 140.71398941 140.71398941 140.71398941 140.71398941 140.71398941 140.71398941 140.71398941 140.71398941 140.71398941 140.71398941 140.71398941 140.71398941 140.71398941 140.71398941 140.71398941 140.71398941 140.71398941 140.71398941 140.71398941 140.71398941 140.71398941 140.71398941 140.71398941 140.71398941 140.71398941 140.71398941 140.71398941 140.71398941 140.71398941 140.71398941 140.71398941 140.71398941 140.71398941 140.71398941 140.71398941 140.71398941 140.71398941 140.71398941 140.71398941 140.71398941 140.71398941 140.71398941 140.71398941 140.71398941 140.71398941 140.71398941 140.71398941 140.71398941 140.71398941 140.71398941 140.71398941 140.71398941 140.71398941 140.71398941 140.71398941 140.71398941 140.71398941 140.71398941 140.71398941 140.71398941 140.71398941 140.71398941 140.71398941 140.71398941 140.71398941 140.71398941 140.71398941 140.71398941 140.71398941 140.71398941 140.71398941 140.71398941 140.71398941 140.71398941 140.71398941 140.71398941 140.71398941 140.71398941 140.71398941 140.71398941 140.71915427 140.72201223 140.72307791 140.72307791 140.72201223 140.71915427 140.71398941 140.71398941 140.71398941 140.71398941 140.71398941 140.71398941 140.71398941 140.71398941 140.71398941 140.71398941 140.71398941 140.71398941 140.71398941 140.71398941 140.71398941 140.71398941 140.71398941 140.71398941 140.71398941 140.71398941 140.71398941 140.71398941 140.71398941 140.71398941 140.71398941 140.71398941 140.71398941 140.71398941 140.71398941 140.71944306 140.72350820 140.72588163 140.72737207 140.72871571 140.73109519 140.73308144 140.73405049 140.73405049 140.73308144 140.73109519 140.72871571 140.72737207 140.72588163 140.72350820 140.71944306 140.71398941 140.71398941 140.71398941 140.71398941 140.71398941 140.71398941 140.71398941 140.71398941 140.71398941 140.71398941 140.71398941 140.71398941 140.71398941 140.71398941 140.71398941 140.71398941 140.71398941 140.71398941 140.71398941 140.71398941 140.71398941 140.71398941 140.72208794 140.72656535 140.73098412 140.73489033 140.73767221 140.73956445 140.74103672 140.74251629 140.74373726 140.74438709 140.74438709 140.74373726 140.74251629 140.74103672 140.73956445 140.73767221 140.73489033 140.73098412 140.72656535 140.72208794 140.71398941 140.71398941 140.71398941 140.71398941 140.71398941 140.71398941 140.71398941 140.71398941 140.71398941 140.71398941 140.71398941 140.71398941 140.71398941 140.71398941 140.71398941 140.71398941 140.71398941 140.71398941 140.72157756 140.72697806 140.73326415 140.73818599 140.74215481 140.74528679 140.74748406 140.74891787 140.74989963 140.75068482 140.75128470 140.75160779 140.75160779 140.75128470 140.75068482 140.74989963 140.74891787 140.74748406 140.74528679 140.74215481 140.73818599 140.73326415 140.72697806 140.72157756 140.71398941 140.71398941 140.71398941 140.71398941 140.71398941 140.71398941 140.71398941 140.71398941 140.71398941 140.71398941 140.71398941 140.71398941 140.71398941 140.71398941 140.71398941 140.72362765 140.73169615 140.73822177 140.74375841 140.74789815 140.75078275 140.75264807 140.75368202 140.75413098 140.75426793 140.75430458 140.75432869 140.75434537 140.75434537 140.75432869 140.75430458 140.75426793 140.75413098 140.75368202 140.75264807 140.75078275 140.74789815 140.74375841 140.73822177 140.73169615 140.72362765 140.71398941 140.71398941 140.71398941 140.71398941 140.71398941 140.71398941 140.71398941 140.71398941 140.71398941 140.71398941 140.71398941 140.71398941 140.71883645 140.72570216 140.73429861 140.74189442 140.74780188 140.75200772 140.75456915 140.75577555 140.75600051 140.75558941 140.75485148 140.75404565 140.75335394 140.75287037 140.75262590 140.75262590 140.75287037 140.75335394 140.75404565 140.75485148 140.75558941 140.75600051 140.75577555 140.75456915 140.75200772 140.74780188 140.74189442 140.73429861 140.72570216 140.71883645 140.71398941 140.71398941 140.71398941 140.71398941 140.71398941 140.71398941 140.71398941 140.71398941 140.71398941 140.71398941 140.72574090 140.73544766 140.74396753 140.75058771 140.75497206 140.75723324 140.75773229 140.75697282 140.75546530 140.75363536 140.75180236 140.75018574 140.74891718 140.74805854 140.74762836 140.74762836 140.74805854 140.74891718 140.75018574 140.75180236 140.75363536 140.75546530 140.75697282 140.75773229 140.75723324 140.75497206 140.75058771 140.74396753 140.73544766 140.72574090 140.71398941 140.71398941 140.71398941 140.71398941 140.71398941 140.71398941 140.71398941 140.71398941 140.71398941 140.72355387 140.73441548 140.74422010 140.75197232 140.75705960 140.75940920 140.75941840 140.75774052 140.75508077 140.75204521 140.74907190 140.74643423 140.74427782 140.74266216 140.74159656 140.74106941 140.74106941 140.74159656 140.74266216 140.74427782 140.74643423 140.74907190 140.75204521 140.75508077 140.75774052 140.75941840 140.75940920 140.75705960 140.75197232 140.74422010 140.73441548 140.72355387 140.71398941 140.71398941 140.71398941 140.71398941 140.71398941 140.71398941 140.71398941 140.72097801 140.73119871 140.74204040 140.75138262 140.75794448 140.76121480 140.76140053 140.75921689 140.75558333 140.75135795 140.74718446 140.74345729 140.74036464 140.73795851 140.73621839 140.73509702 140.73454943 140.73454943 140.73509702 140.73621839 140.73795851 140.74036464 140.74345729 140.74718446 140.75135795 140.75558333 140.75921689 140.76140053 140.76121480 140.75794448 140.75138262 140.74204040 140.73119871 140.72097801 140.71398941 140.71398941 140.71398941 140.71398941 140.71398941 140.71398941 140.72495966 140.73670495 140.74781882 140.75660272 140.76190970 140.76343911 140.76169257 140.75767834 140.75252727 140.74719094 140.74230243 140.73818199 140.73492085 140.73247957 140.73076615 140.72968518 140.72916390 140.72916390 140.72968518 140.73076615 140.73247957 140.73492085 140.73818199 140.74230243 140.74719094 140.75252727 140.75767834 140.76169257 140.76343911 140.76190970 140.75660272 140.74781882 140.73670495 140.72495966 140.71398941 140.71398941 140.71398941 140.71398941 140.71398941 140.71398941 140.72750626 140.74033399 140.75162881 140.75991298 140.76419434 140.76437625 140.76120464 140.75590843 140.74975954 140.74375389 140.73849234 140.73422237 140.73095386 140.72857703 140.72694814 140.72593855 140.72545697 140.72545697 140.72593855 140.72694814 140.72857703 140.73095386 140.73422237 140.73849234 140.74375389 140.74975954 140.75590843 140.76120464 140.76437625 140.76419434 140.75991298 140.75162881 140.74033399 140.72750626 140.71398941 140.71398941 140.71398941 140.71398941 140.71398941 140.71806609 140.72959545 140.74230524 140.75353981 140.76150170 140.76520446 140.76465518 140.76073358 140.75478530 140.74815105 140.74184163 140.73643283 140.73212815 140.72889179 140.72657626 140.72501120 140.72405140 140.72359662 140.72359662 140.72405140 140.72501120 140.72657626 140.72889179 140.73212815 140.73643283 140.74184163 140.74815105 140.75478530 140.76073358 140.76465518 140.76520446 140.76150170 140.75353981 140.74230524 140.72959545 140.71806609 140.71398941 140.71398941 140.71398941 140.71398941 140.71806609 140.72959545 140.74230524 140.75353981 140.76150170 140.76520446 140.76465518 140.76073358 140.75478530 140.74815105 140.74184163 140.73643283 140.73212815 140.72889179 140.72657626 140.72501120 140.72405140 140.72359662 140.72359662 140.72405140 140.72501120 140.72657626 140.72889179 140.73212815 140.73643283 140.74184163 140.74815105 140.75478530 140.76073358 140.76465518 140.76520446 140.76150170 140.75353981 140.74230524 140.72959545 140.71806609 140.71398941 140.71398941 140.71398941 140.71398941 140.71398941 140.72750626 140.74033399 140.75162881 140.75991298 140.76419434 140.76437625 140.76120464 140.75590843 140.74975954 140.74375389 140.73849234 140.73422237 140.73095386 140.72857703 140.72694814 140.72593855 140.72545697 140.72545697 140.72593855 140.72694814 140.72857703 140.73095386 140.73422237 140.73849234 140.74375389 140.74975954 140.75590843 140.76120464 140.76437625 140.76419434 140.75991298 140.75162881 140.74033399 140.72750626 140.71398941 140.71398941 140.71398941 140.71398941 140.71398941 140.71398941 140.72495966 140.73670495 140.74781882 140.75660272 140.76190970 140.76343911 140.76169257 140.75767834 140.75252727 140.74719094 140.74230243 140.73818199 140.73492085 140.73247957 140.73076615 140.72968518 140.72916390 140.72916390 140.72968518 140.73076615 140.73247957 140.73492085 140.73818199 140.74230243 140.74719094 140.75252727 140.75767834 140.76169257 140.76343911 140.76190970 140.75660272 140.74781882 140.73670495 140.72495966 140.71398941 140.71398941 140.71398941 140.71398941 140.71398941 140.71398941 140.72097801 140.73119871 140.74204040 140.75138262 140.75794448 140.76121480 140.76140053 140.75921689 140.75558333 140.75135795 140.74718446 140.74345729 140.74036464 140.73795851 140.73621839 140.73509702 140.73454943 140.73454943 140.73509702 140.73621839 140.73795851 140.74036464 140.74345729 140.74718446 140.75135795 140.75558333 140.75921689 140.76140053 140.76121480 140.75794448 140.75138262 140.74204040 140.73119871 140.72097801 140.71398941 140.71398941 140.71398941 140.71398941 140.71398941 140.71398941 140.71398941 140.72355387 140.73441548 140.74422010 140.75197232 140.75705960 140.75940920 140.75941840 140.75774052 140.75508077 140.75204521 140.74907190 140.74643423 140.74427782 140.74266216 140.74159656 140.74106941 140.74106941 140.74159656 140.74266216 140.74427782 140.74643423 140.74907190 140.75204521 140.75508077 140.75774052 140.75941840 140.75940920 140.75705960 140.75197232 140.74422010 140.73441548 140.72355387 140.71398941 140.71398941 140.71398941 140.71398941 140.71398941 140.71398941 140.71398941 140.71398941 140.71398941 140.72574090 140.73544766 140.74396753 140.75058771 140.75497206 140.75723324 140.75773229 140.75697282 140.75546530 140.75363536 140.75180236 140.75018574 140.74891718 140.74805854 140.74762836 140.74762836 140.74805854 140.74891718 140.75018574 140.75180236 140.75363536 140.75546530 140.75697282 140.75773229 140.75723324 140.75497206 140.75058771 140.74396753 140.73544766 140.72574090 140.71398941 140.71398941 140.71398941 140.71398941 140.71398941 140.71398941 140.71398941 140.71398941 140.71398941 140.71398941 140.71883645 140.72570216 140.73429861 140.74189442 140.74780188 140.75200772 140.75456915 140.75577555 140.75600051 140.75558941 140.75485148 140.75404565 140.75335394 140.75287037 140.75262590 140.75262590 140.75287037 140.75335394 140.75404565 140.75485148 140.75558941 140.75600051 140.75577555 140.75456915 140.75200772 140.74780188 140.74189442 140.73429861 140.72570216 140.71883645 140.71398941 140.71398941 140.71398941 140.71398941 140.71398941 140.71398941 140.71398941 140.71398941 140.71398941 140.71398941 140.71398941 140.71398941 140.72362765 140.73169615 140.73822177 140.74375841 140.74789815 140.75078275 140.75264807 140.75368202 140.75413098 140.75426793 140.75430458 140.75432869 140.75434537 140.75434537 140.75432869 140.75430458 140.75426793 140.75413098 140.75368202 140.75264807 140.75078275 140.74789815 140.74375841 140.73822177 140.73169615 140.72362765 140.71398941 140.71398941 140.71398941 140.71398941 140.71398941 140.71398941 140.71398941 140.71398941 140.71398941 140.71398941 140.71398941 140.71398941 140.71398941 140.71398941 140.71398941 140.72157756 140.72697806 140.73326415 140.73818599 140.74215481 140.74528679 140.74748406 140.74891787 140.74989963 140.75068482 140.75128470 140.75160779 140.75160779 140.75128470 140.75068482 140.74989963 140.74891787 140.74748406 140.74528679 140.74215481 140.73818599 140.73326415 140.72697806 140.72157756 140.71398941 140.71398941 140.71398941 140.71398941 140.71398941 140.71398941 140.71398941 140.71398941 140.71398941 140.71398941 140.71398941 140.71398941 140.71398941 140.71398941 140.71398941 140.71398941 140.71398941 140.71398941 140.72208794 140.72656535 140.73098412 140.73489033 140.73767221 140.73956445 140.74103672 140.74251629 140.74373726 140.74438709 140.74438709 140.74373726 140.74251629 140.74103672 140.73956445 140.73767221 140.73489033 140.73098412 140.72656535 140.72208794 140.71398941 140.71398941 140.71398941 140.71398941 140.71398941 140.71398941 140.71398941 140.71398941 140.71398941 140.71398941 140.71398941 140.71398941 140.71398941 140.71398941 140.71398941 140.71398941 140.71398941 140.71398941 140.71398941 140.71398941 140.71398941 140.71398941 140.71944306 140.72350820 140.72588163 140.72737207 140.72871571 140.73109519 140.73308144 140.73405049 140.73405049 140.73308144 140.73109519 140.72871571 140.72737207 140.72588163 140.72350820 140.71944306 140.71398941 140.71398941 140.71398941 140.71398941 140.71398941 140.71398941 140.71398941 140.71398941 140.71398941 140.71398941 140.71398941 140.71398941 140.71398941 140.71398941 140.71398941 140.71398941 140.71398941 140.71398941 140.71398941 140.71398941 140.71398941 140.71398941 140.71398941 140.71398941 140.71398941 140.71398941 140.71398941 140.71398941 140.71398941 140.71915427 140.72201223 140.72307791 140.72307791 140.72201223 140.71915427 140.71398941 140.71398941 140.71398941 140.71398941 140.71398941 140.71398941 140.71398941 140.71398941 140.71398941 140.71398941 140.71398941 140.71398941 140.71398941 140.71398941 140.71398941 140.71398941 140.71398941 140.71398941 140.71398941 140.71398941 140.71398941 140.71398941 140.71398941 140.71398941 140.71398941 140.71398941 140.71398941 140.71398941 140.71398941 140.71398941 140.71398941 140.71398941 140.71398941 140.71398941 140.71398941 140.71398941 140.71398941 140.71398941 140.71398941 140.71398941 140.71398941 140.71398941 140.71398941 140.71398941 140.71398941 140.71398941 140.71398941 140.71398941 140.71398941 140.71398941 140.71398941 140.71398941 140.71398941 140.71398941 140.71398941 140.71398941 140.71398941 140.71398941 140.71398941 140.71398941 140.71398941 140.71398941 140.71398941 140.71398941 140.71398941 140.71398941 140.71398941 140.71398941 140.71398941 140.71398941 140.71398941 140.71398941 140.71398941 140.71398941 140.71398941 140.71398941 140.71398941 140.71398941 140.71398941 140.71398941 140.71398941 140.71398941 140.71398941 140.71398941 140.71398941 140.71398941 140.71398941 140.71398941 140.71398941 140.71398941 140.71398941 140.71398941 140.71398941 140.71398941 140.71398941 140.71398941 140.71398941 140.71398941 140.71398941 140.71398941 140.71398941 140.71398941 140.71398941 140.71398941 140.71398941 140.71398941 140.71398941 140.71398941 140.71398941 140.71398941 140.71398941 140.71398941 140.71398941 140.71398941 140.71398941 140.71398941 140.71398941 140.71398941 140.71398941 140.71398941 140.71398941 140.71398941 140.71398941 140.71398941 140.71398941 140.71398941 140.71398941 140.71398941 140.71398941 140.71398941 140.71398941 140.71398941 140.71398941 140.71398941 140.71398941 140.71398941 140.71398941 140.71398941 140.71398941 140.71398941 140.71398941 140.71398941 140.71398941 140.71398941 140.71398941 140.71398941 140.71398941 140.71398941 140.71398941 140.71398941 140.71398941 140.71398941 140.71398941 140.71398941 140.71398941 140.71398941 140.71398941 140.71398941 140.71398941 140.71398941 140.71398941 140.71398941 140.71398941 140.71398941 140.71398941 140.71398941 140.71398941 140.71398941 140.71398941 140.71398941 140.71398941 140.71398941 140.71398941 140.71398941 140.71398941 140.71398941 140.71398941 140.71398941 140.71398941 140.71398941 140.71398941 140.71398941 140.71398941 140.71398941 140.71398941 140.71398941 140.71398941 140.71398941 140.71398941 140.71398941 140.71398941 140.71398941 140.71398941 140.71398941 140.71398941 140.71398941 140.71398941 140.71398941 140.71398941 140.71398941 140.71398941 140.71398941 140.71398941 140.71398941 140.71398941 140.71398941 140.71398941 140.71398941 140.71398941 140.71398941 140.71398941 140.71398941 140.71398941 140.71398941 140.71398941 140.71398941 140.71398941 140.71398941 140.71398941 140.71398941 140.71398941 140.71398941 140.71398941 140.71398941 140.71398941 140.71398941 140.71398941 140.71398941 140.71398941 140.71398941 140.71398941 140.71398941 140.71398941 140.71398941 140.71398941 140.71398941 140.71398941 140.71398941 140.71398941 140.71398941 140.71398941 140.71398941 140.71398941 140.71398941 140.71398941 140.71398941 140.71398941 140.71398941 140.71398941 140.71398941 140.71398941 140.71398941 140.71398941 140.71398941 140.71398941 140.71398941 140.71398941 140.71398941 140.71398941 140.71398941 140.71398941 140.71398941 140.71398941 140.71398941 140.71398941 140.71398941 140.71398941 140.71398941 140.71398941 140.71398941 140.71398941 140.71398941 140.71398941 140.71398941 140.71398941 140.71398941 140.71398941 140.71398941 140.71398941 140.71398941 140.71398941 140.71398941 140.71398941 140.71398941 140.71398941 140.71398941 140.71398941 140.71398941 140.71398941 140.71398941 140.71398941 140.71398941 140.71398941 140.71398941 140.71398941 140.71398941 140.71398941 140.71398941 140.71398941 140.71398941 140.71398941 140.71398941 140.71398941 140.71398941 140.71398941 140.71398941 140.71398941 140.71398941 140.71398941 140.71398941 140.71398941 140.71398941 140.71398941 140.71398941 140.71398941 140.71398941 140.71398941 140.71398941 140.71398941 140.71398941 140.71398941 140.71398941 140.71398941 140.71398941 140.71398941 140.71398941 140.71398941 140.71398941 140.71398941 140.71398941 140.71398941 140.71398941 140.71398941 140.71398941 140.71398941 140.71398941 140.71398941 