# vtk DataFile Version 3.0
VTK - Matlab export
ASCII
DATASET STRUCTURED_POINTS
DIMENSIONS 40 40 1
SPACING 1 1 1
ORIGIN 0 0 0
POINT_DATA 1600
SCALARS Temperature float 1
LOOKUP_TABLE default
200.00000000 200.00000000 200.00000000 200.00000000 200.00000000 200.00000000 200.00000000 200.00000000 200.00000000 200.00000000 200.00000000 200.00000000 200.00000000 200.00000000 200.00000000 200.00000000 200.00000000 200.00000000 200.00000000 200.00000000 200.00000000 200.00000000 200.00000000 200.00000000 200.00000000 200.00000000 200.00000000 200.00000000 200.00000000 200.00000000 200.00000000 200.00000000 200.00000000 200.00000000 200.00000000 200.00000000 200.00000000 200.00000000 200.00000000 200.00000000 200.00000000 200.00000000 200.00000000 200.00000000 200.00000000 200.00000000 200.00000000 200.00000000 200.00000000 200.00000000 200.00000000 200.00000000 200.00000000 200.00000000 200.00000000 200.00000000 200.00000000 200.00000000 200.00000000 200.00000000 200.00000000 200.00000000 200.00000000 200.00000000 200.00000000 200.00000000 200.00000000 200.00000000 200.00000000 200.00000000 200.00000000 200.00000000 200.00000000 200.00000000 200.00000000 200.00000000 200.00000000 200.00000000 200.00000000 200.00000000 200.00000000 200.00000000 200.00000000 200.00000000 200.00000000 200.00000000 200.00000000 200.00000000 200.00000000 200.00000000 200.00000000 200.00000000 200.00000000 200.00000000 200.00000000 200.00000000 200.00000000 200.00000000 200.00000000 200.00000000 200.00000000 200.00000000 200.00000000 200.00000000 200.00000000 200.00000000 200.00000000 200.00000000 200.00000000 200.00000000 200.00000000 200.00000000 200.00000000 200.00000000 200.00000000 200.00000000 200.00000000 200.00000000 200.00000000 200.00000000 200.00000000 200.00000000 200.00000000 200.00000000 200.00000000 200.00000000 200.00000000 200.00000000 200.00000000 200.00000000 200.00000000 200.00000000 200.00000000 200.00000000 200.00000000 200.00000000 200.00000000 200.00000000 200.00000000 200.00000000 200.00000000 200.00000000 200.00000000 200.00000000 200.00000000 200.00000000 200.00000000 200.00000000 200.00000000 200.00000000 200.00000000 200.00000000 200.00000000 200.00000000 200.00000000 200.00000000 200.00000000 200.00000000 200.00000000 200.00000000 200.00000000 200.00000000 200.00000000 200.00000000 200.00000000 200.00000000 200.00000000 200.00000000 200.00000000 200.00000000 200.00000000 200.00000000 200.00000000 200.00000000 200.00000000 200.00000000 200.00000000 200.00000000 200.00000000 200.00000000 200.00000000 200.00000000 200.00000000 200.00000000 200.00000000 200.00000000 200.00000000 200.00000000 200.00000000 200.00000000 200.00000000 200.00000000 200.00000000 200.00000000 200.00000000 200.00000000 200.00000000 200.00000000 200.00000000 200.00000000 200.00000000 200.00000000 200.00000000 200.00000000 200.00000000 200.00000000 200.00000000 200.00000000 200.00000000 200.00000000 200.00000000 200.00000000 200.00000000 200.00000000 200.00000000 200.00000000 200.00000000 200.00000000 200.00000000 200.00000000 200.00000000 200.00000000 200.00000000 200.00000000 200.00000000 200.00000000 200.00000000 200.00000000 200.00000000 200.00000000 200.00000000 200.00000000 200.00000000 200.00000000 200.00000000 200.00000000 200.00000000 200.00000000 200.00000000 200.00000000 200.00000000 200.00000000 200.00000000 200.00000000 200.00000000 200.00000000 200.00000000 200.00000000 200.00000000 200.00000000 200.00000000 200.00000000 200.00000000 200.00000000 200.00000000 200.00000000 200.00000000 200.00000000 200.00000000 200.00000000 200.00000000 200.00000000 200.00000000 200.00000000 200.00000000 200.00000000 200.00000000 200.00000000 200.00000000 200.00000000 200.00000000 200.00000000 200.00000000 200.00000000 200.00000000 200.00000000 200.00000000 200.00000000 200.00000000 200.00000000 200.00000000 200.00000000 200.00000000 200.00000000 200.00000000 200.00000000 200.00000000 200.00000000 200.00000000 200.00000000 200.00000000 200.00000000 200.00000000 200.00000000 200.00000000 200.00000000 200.00000000 200.00000000 200.00000000 200.00000000 200.00000000 200.00000000 200.00000000 200.00000000 200.00000000 200.00000000 200.00000000 200.00000000 200.00000000 200.00000000 200.00000000 200.00000000 200.00000000 200.00000000 200.00000000 200.00000000 200.00000000 200.00000000 200.00000000 200.00000000 200.00000000 200.00000000 200.00000000 200.00000000 200.00000000 200.00000000 200.00000000 200.00000000 200.00000000 200.00000000 200.00000000 200.00000000 200.00000000 200.00000000 200.00000000 200.00000000 200.00000000 254.32448872 284.81333741 296.36304369 296.36304369 284.81333741 254.32448872 200.00000000 200.00000000 200.00000000 200.00000000 200.00000000 200.00000000 200.00000000 200.00000000 200.00000000 200.00000000 200.00000000 200.00000000 200.00000000 200.00000000 200.00000000 200.00000000 200.00000000 200.00000000 200.00000000 200.00000000 200.00000000 200.00000000 200.00000000 200.00000000 200.00000000 200.00000000 200.00000000 200.00000000 200.00000000 256.10307156 298.39802385 323.27704411 338.98227333 353.31041886 378.83014042 400.45372225 411.16721245 411.16721245 400.45372225 378.83014042 353.31041886 338.98227333 323.27704411 298.39802385 256.10307156 200.00000000 200.00000000 200.00000000 200.00000000 200.00000000 200.00000000 200.00000000 200.00000000 200.00000000 200.00000000 200.00000000 200.00000000 200.00000000 200.00000000 200.00000000 200.00000000 200.00000000 200.00000000 200.00000000 200.00000000 200.00000000 200.00000000 281.92284764 327.80983704 373.62475649 414.59155706 444.09816362 464.45221297 480.61683301 497.10591385 510.92378449 518.38531330 518.38531330 510.92378449 497.10591385 480.61683301 464.45221297 444.09816362 414.59155706 373.62475649 327.80983704 281.92284764 200.00000000 200.00000000 200.00000000 200.00000000 200.00000000 200.00000000 200.00000000 200.00000000 200.00000000 200.00000000 200.00000000 200.00000000 200.00000000 200.00000000 200.00000000 200.00000000 200.00000000 200.00000000 275.03030967 329.17265520 393.02208268 443.67184065 485.37356053 519.33314400 544.29473303 561.72225931 574.59044817 585.28200890 593.54272307 598.03052508 598.03052508 593.54272307 585.28200890 574.59044817 561.72225931 544.29473303 519.33314400 485.37356053 443.67184065 393.02208268 329.17265520 275.03030967 200.00000000 200.00000000 200.00000000 200.00000000 200.00000000 200.00000000 200.00000000 200.00000000 200.00000000 200.00000000 200.00000000 200.00000000 200.00000000 200.00000000 200.00000000 293.51696470 372.93999407 438.04718667 494.55217177 538.55543576 571.69053388 596.22208013 613.48209146 625.18785571 633.35098819 639.46333433 643.86653680 646.21429922 646.21429922 643.86653680 639.46333433 633.35098819 625.18785571 613.48209146 596.22208013 571.69053388 538.55543576 494.55217177 438.04718667 372.93999407 293.51696470 200.00000000 200.00000000 200.00000000 200.00000000 200.00000000 200.00000000 200.00000000 200.00000000 200.00000000 200.00000000 200.00000000 200.00000000 246.06979299 311.57234966 394.26152194 468.20337414 527.48981445 572.95508161 605.63246256 628.19213527 643.46127510 653.52304150 660.02041615 664.31074795 667.30600782 669.34893434 670.41298240 670.41298240 669.34893434 667.30600782 664.31074795 660.02041615 653.52304150 643.46127510 628.19213527 605.63246256 572.95508161 527.48981445 468.20337414 394.26152194 311.57234966 246.06979299 200.00000000 200.00000000 200.00000000 200.00000000 200.00000000 200.00000000 200.00000000 200.00000000 200.00000000 200.00000000 310.47828311 401.51697095 481.66786926 545.83816479 592.93780373 625.40865816 646.59786464 659.92280775 668.16160291 673.19731619 676.26024595 678.17322750 679.43440732 680.25667780 680.67522059 680.67522059 680.25667780 679.43440732 678.17322750 676.26024595 673.19731619 668.16160291 659.92280775 646.59786464 625.40865816 592.93780373 545.83816479 481.66786926 401.51697095 310.47828311 200.00000000 200.00000000 200.00000000 200.00000000 200.00000000 200.00000000 200.00000000 200.00000000 200.00000000 289.16758492 389.53466013 478.84428927 550.09705461 601.41289649 635.28103299 656.18268281 668.44310894 675.40813899 679.32097925 681.52191962 682.77265355 683.50937828 683.97013481 684.25873255 684.40243470 684.40243470 684.25873255 683.97013481 683.50937828 682.77265355 681.52191962 679.32097925 675.40813899 668.44310894 656.18268281 635.28103299 601.41289649 550.09705461 478.84428927 389.53466013 289.16758492 200.00000000 200.00000000 200.00000000 200.00000000 200.00000000 200.00000000 200.00000000 265.22850567 359.29772340 456.50939378 538.47120988 598.22520738 636.92862211 659.72771861 672.23156907 678.75544039 682.06551060 683.73766416 684.59433921 685.04508539 685.29429877 685.44222140 685.53139951 685.57484973 685.57484973 685.53139951 685.44222140 685.29429877 685.04508539 684.59433921 683.73766416 682.06551060 678.75544039 672.23156907 659.72771861 636.92862211 598.22520738 538.47120988 456.50939378 359.29772340 265.22850567 200.00000000 200.00000000 200.00000000 200.00000000 200.00000000 200.00000000 301.80809136 408.20296830 504.77900206 579.21672157 628.59008796 657.36571597 672.46091562 679.77140186 683.12430252 684.61997770 685.28803766 685.59477698 685.74226711 685.81820647 685.86087407 685.88562815 685.89742500 685.89742500 685.88562815 685.86087407 685.81820647 685.74226711 685.59477698 685.28803766 684.61997770 683.12430252 679.77140186 672.46091562 657.36571597 628.59008796 579.21672157 504.77900206 408.20296830 301.80809136 200.00000000 200.00000000 200.00000000 200.00000000 200.00000000 200.00000000 324.64363503 439.25275302 534.97785611 603.52017808 645.51330468 667.86692368 678.43138965 682.97291378 684.79672175 685.50232474 685.77520974 685.88486497 685.93205508 685.95437655 685.96619338 685.97280236 685.97589170 685.97589170 685.97280236 685.96619338 685.95437655 685.93205508 685.88486497 685.77520974 685.50232474 684.79672175 682.97291378 678.43138965 667.86692368 645.51330468 603.52017808 534.97785611 439.25275302 324.64363503 200.00000000 200.00000000 200.00000000 200.00000000 200.00000000 237.72135064 343.50720392 455.83327827 549.59489876 614.69180573 652.89755406 672.18087597 680.71805444 684.10480844 685.33794548 685.76261573 685.90667838 685.95730504 685.97663062 685.98496596 685.98914059 685.99142903 685.99249631 685.99249631 685.99142903 685.98914059 685.98496596 685.97663062 685.95730504 685.90667838 685.76261573 685.33794548 684.10480844 680.71805444 672.18087597 652.89755406 614.69180573 549.59489876 455.83327827 343.50720392 237.72135064 200.00000000 200.00000000 200.00000000 200.00000000 237.72135064 343.50720392 455.83327827 549.59489876 614.69180573 652.89755406 672.18087597 680.71805444 684.10480844 685.33794548 685.76261573 685.90667838 685.95730504 685.97663062 685.98496596 685.98914059 685.99142903 685.99249631 685.99249631 685.99142903 685.98914059 685.98496596 685.97663062 685.95730504 685.90667838 685.76261573 685.33794548 684.10480844 680.71805444 672.18087597 652.89755406 614.69180573 549.59489876 455.83327827 343.50720392 237.72135064 200.00000000 200.00000000 200.00000000 200.00000000 200.00000000 324.64363503 439.25275302 534.97785611 603.52017808 645.51330468 667.86692368 678.43138965 682.97291378 684.79672175 685.50232474 685.77520974 685.88486497 685.93205508 685.95437655 685.96619338 685.97280236 685.97589170 685.97589170 685.97280236 685.96619338 685.95437655 685.93205508 685.88486497 685.77520974 685.50232474 684.79672175 682.97291378 678.43138965 667.86692368 645.51330468 603.52017808 534.97785611 439.25275302 324.64363503 200.00000000 200.00000000 200.00000000 200.00000000 200.00000000 200.00000000 301.80809136 408.20296830 504.77900206 579.21672157 628.59008796 657.36571597 672.46091562 679.77140186 683.12430252 684.61997770 685.28803766 685.59477698 685.74226711 685.81820647 685.86087407 685.88562815 685.89742500 685.89742500 685.88562815 685.86087407 685.81820647 685.74226711 685.59477698 685.28803766 684.61997770 683.12430252 679.77140186 672.46091562 657.36571597 628.59008796 579.21672157 504.77900206 408.20296830 301.80809136 200.00000000 200.00000000 200.00000000 200.00000000 200.00000000 200.00000000 265.22850567 359.29772340 456.50939378 538.47120988 598.22520738 636.92862211 659.72771861 672.23156907 678.75544039 682.06551060 683.73766416 684.59433921 685.04508539 685.29429877 685.44222140 685.53139951 685.57484973 685.57484973 685.53139951 685.44222140 685.29429877 685.04508539 684.59433921 683.73766416 682.06551060 678.75544039 672.23156907 659.72771861 636.92862211 598.22520738 538.47120988 456.50939378 359.29772340 265.22850567 200.00000000 200.00000000 200.00000000 200.00000000 200.00000000 200.00000000 200.00000000 289.16758492 389.53466013 478.84428927 550.09705461 601.41289649 635.28103299 656.18268281 668.44310894 675.40813899 679.32097925 681.52191962 682.77265355 683.50937828 683.97013481 684.25873255 684.40243470 684.40243470 684.25873255 683.97013481 683.50937828 682.77265355 681.52191962 679.32097925 675.40813899 668.44310894 656.18268281 635.28103299 601.41289649 550.09705461 478.84428927 389.53466013 289.16758492 200.00000000 200.00000000 200.00000000 200.00000000 200.00000000 200.00000000 200.00000000 200.00000000 200.00000000 310.47828311 401.51697095 481.66786926 545.83816479 592.93780373 625.40865816 646.59786464 659.92280775 668.16160291 673.19731619 676.26024595 678.17322750 679.43440732 680.25667780 680.67522059 680.67522059 680.25667780 679.43440732 678.17322750 676.26024595 673.19731619 668.16160291 659.92280775 646.59786464 625.40865816 592.93780373 545.83816479 481.66786926 401.51697095 310.47828311 200.00000000 200.00000000 200.00000000 200.00000000 200.00000000 200.00000000 200.00000000 200.00000000 200.00000000 200.00000000 246.06979299 311.57234966 394.26152194 468.20337414 527.48981445 572.95508161 605.63246256 628.19213527 643.46127510 653.52304150 660.02041615 664.31074795 667.30600782 669.34893434 670.41298240 670.41298240 669.34893434 667.30600782 664.31074795 660.02041615 653.52304150 643.46127510 628.19213527 605.63246256 572.95508161 527.48981445 468.20337414 394.26152194 311.57234966 246.06979299 200.00000000 200.00000000 200.00000000 200.00000000 200.00000000 200.00000000 200.00000000 200.00000000 200.00000000 200.00000000 200.00000000 200.00000000 293.51696470 372.93999407 438.04718667 494.55217177 538.55543576 571.69053388 596.22208013 613.48209146 625.18785571 633.35098819 639.46333433 643.86653680 646.21429922 646.21429922 643.86653680 639.46333433 633.35098819 625.18785571 613.48209146 596.22208013 571.69053388 538.55543576 494.55217177 438.04718667 372.93999407 293.51696470 200.00000000 200.00000000 200.00000000 200.00000000 200.00000000 200.00000000 200.00000000 200.00000000 200.00000000 200.00000000 200.00000000 200.00000000 200.00000000 200.00000000 200.00000000 275.03030967 329.17265520 393.02208268 443.67184065 485.37356053 519.33314400 544.29473303 561.72225931 574.59044817 585.28200890 593.54272307 598.03052508 598.03052508 593.54272307 585.28200890 574.59044817 561.72225931 544.29473303 519.33314400 485.37356053 443.67184065 393.02208268 329.17265520 275.03030967 200.00000000 200.00000000 200.00000000 200.00000000 200.00000000 200.00000000 200.00000000 200.00000000 200.00000000 200.00000000 200.00000000 200.00000000 200.00000000 200.00000000 200.00000000 200.00000000 200.00000000 200.00000000 281.92284764 327.80983704 373.62475649 414.59155706 444.09816362 464.45221297 480.61683301 497.10591385 510.92378449 518.38531330 518.38531330 510.92378449 497.10591385 480.61683301 464.45221297 444.09816362 414.59155706 373.62475649 327.80983704 281.92284764 200.00000000 200.00000000 200.00000000 200.00000000 200.00000000 200.00000000 200.00000000 200.00000000 200.00000000 200.00000000 200.00000000 200.00000000 200.00000000 200.00000000 200.00000000 200.00000000 200.00000000 200.00000000 200.00000000 200.00000000 200.00000000 200.00000000 256.10307156 298.39802385 323.27704411 338.98227333 353.31041886 378.83014042 400.45372225 411.16721245 411.16721245 400.45372225 378.83014042 353.31041886 338.98227333 323.27704411 298.39802385 256.10307156 200.00000000 200.00000000 200.00000000 200.00000000 200.00000000 200.00000000 200.00000000 200.00000000 200.00000000 200.00000000 200.00000000 200.00000000 200.00000000 200.00000000 200.00000000 200.00000000 200.00000000 200.00000000 200.00000000 200.00000000 200.00000000 200.00000000 200.00000000 200.00000000 200.00000000 200.00000000 200.00000000 200.00000000 200.00000000 254.32448872 284.81333741 296.36304369 296.36304369 284.81333741 254.32448872 200.00000000 200.00000000 200.00000000 200.00000000 200.00000000 200.00000000 200.00000000 200.00000000 200.00000000 200.00000000 200.00000000 200.00000000 200.00000000 200.00000000 200.00000000 200.00000000 200.00000000 200.00000000 200.00000000 200.00000000 200.00000000 200.00000000 200.00000000 200.00000000 200.00000000 200.00000000 200.00000000 200.00000000 200.00000000 200.00000000 200.00000000 200.00000000 200.00000000 200.00000000 200.00000000 200.00000000 200.00000000 200.00000000 200.00000000 200.00000000 200.00000000 200.00000000 200.00000000 200.00000000 200.00000000 200.00000000 200.00000000 200.00000000 200.00000000 200.00000000 200.00000000 200.00000000 200.00000000 200.00000000 200.00000000 200.00000000 200.00000000 200.00000000 200.00000000 200.00000000 200.00000000 200.00000000 200.00000000 200.00000000 200.00000000 200.00000000 200.00000000 200.00000000 200.00000000 200.00000000 200.00000000 200.00000000 200.00000000 200.00000000 200.00000000 200.00000000 200.00000000 200.00000000 200.00000000 200.00000000 200.00000000 200.00000000 200.00000000 200.00000000 200.00000000 200.00000000 200.00000000 200.00000000 200.00000000 200.00000000 200.00000000 200.00000000 200.00000000 200.00000000 200.00000000 200.00000000 200.00000000 200.00000000 200.00000000 200.00000000 200.00000000 200.00000000 200.00000000 200.00000000 200.00000000 200.00000000 200.00000000 200.00000000 200.00000000 200.00000000 200.00000000 200.00000000 200.00000000 200.00000000 200.00000000 200.00000000 200.00000000 200.00000000 200.00000000 200.00000000 200.00000000 200.00000000 200.00000000 200.00000000 200.00000000 200.00000000 200.00000000 200.00000000 200.00000000 200.00000000 200.00000000 200.00000000 200.00000000 200.00000000 200.00000000 200.00000000 200.00000000 200.00000000 200.00000000 200.00000000 200.00000000 200.00000000 200.00000000 200.00000000 200.00000000 200.00000000 200.00000000 200.00000000 200.00000000 200.00000000 200.00000000 200.00000000 200.00000000 200.00000000 200.00000000 200.00000000 200.00000000 200.00000000 200.00000000 200.00000000 200.00000000 200.00000000 200.00000000 200.00000000 200.00000000 200.00000000 200.00000000 200.00000000 200.00000000 200.00000000 200.00000000 200.00000000 200.00000000 200.00000000 200.00000000 200.00000000 200.00000000 200.00000000 200.00000000 200.00000000 200.00000000 200.00000000 200.00000000 200.00000000 200.00000000 200.00000000 200.00000000 200.00000000 200.00000000 200.00000000 200.00000000 200.00000000 200.00000000 200.00000000 200.00000000 200.00000000 200.00000000 200.00000000 200.00000000 200.00000000 200.00000000 200.00000000 200.00000000 200.00000000 200.00000000 200.00000000 200.00000000 200.00000000 200.00000000 200.00000000 200.00000000 200.00000000 200.00000000 200.00000000 200.00000000 200.00000000 200.00000000 200.00000000 200.00000000 200.00000000 200.00000000 200.00000000 200.00000000 200.00000000 200.00000000 200.00000000 200.00000000 200.00000000 200.00000000 200.00000000 200.00000000 200.00000000 200.00000000 200.00000000 200.00000000 200.00000000 200.00000000 200.00000000 200.00000000 200.00000000 200.00000000 200.00000000 200.00000000 200.00000000 200.00000000 200.00000000 200.00000000 200.00000000 200.00000000 200.00000000 200.00000000 200.00000000 200.00000000 200.00000000 200.00000000 200.00000000 200.00000000 200.00000000 200.00000000 200.00000000 200.00000000 200.00000000 200.00000000 200.00000000 200.00000000 200.00000000 200.00000000 200.00000000 200.00000000 200.00000000 200.00000000 200.00000000 200.00000000 200.00000000 200.00000000 200.00000000 200.00000000 200.00000000 200.00000000 200.00000000 200.00000000 200.00000000 200.00000000 200.00000000 200.00000000 200.00000000 200.00000000 200.00000000 200.00000000 200.00000000 200.00000000 200.00000000 200.00000000 200.00000000 200.00000000 200.00000000 200.00000000 200.00000000 200.00000000 200.00000000 200.00000000 200.00000000 200.00000000 200.00000000 200.00000000 200.00000000 200.00000000 200.00000000 200.00000000 200.00000000 200.00000000 200.00000000 200.00000000 200.00000000 200.00000000 200.00000000 200.00000000 200.00000000 200.00000000 200.00000000 200.00000000 200.00000000 200.00000000 200.00000000 200.00000000 200.00000000 200.00000000 200.00000000 200.00000000 200.00000000 200.00000000 200.00000000 200.00000000 200.00000000 200.00000000 200.00000000 200.00000000 