# vtk DataFile Version 3.0
VTK - Matlab export
ASCII
DATASET STRUCTURED_POINTS
DIMENSIONS 40 40 1
SPACING 1 1 1
ORIGIN 0 0 0
POINT_DATA 1600
SCALARS Temperature float 1
LOOKUP_TABLE default
200.00000000 200.00000000 200.00000000 200.00000000 200.00000000 200.00000000 200.00000000 200.00000000 200.00000000 200.00000000 200.00000000 200.00000000 200.00000000 200.00000000 200.00000000 200.00000000 200.00000000 200.00000000 200.00000000 200.00000000 200.00000000 200.00000000 200.00000000 200.00000000 200.00000000 200.00000000 200.00000000 200.00000000 200.00000000 200.00000000 200.00000000 200.00000000 200.00000000 200.00000000 200.00000000 200.00000000 200.00000000 200.00000000 200.00000000 200.00000000 200.00000000 200.00000000 200.00000000 200.00000000 200.00000000 200.00000000 200.00000000 200.00000000 200.00000000 200.00000000 200.00000000 200.00000000 200.00000000 200.00000000 200.00000000 200.00000000 200.00000000 200.00000000 200.00000000 200.00000000 200.00000000 200.00000000 200.00000000 200.00000000 200.00000000 200.00000000 200.00000000 200.00000000 200.00000000 200.00000000 200.00000000 200.00000000 200.00000000 200.00000000 200.00000000 200.00000000 200.00000000 200.00000000 200.00000000 200.00000000 200.00000000 200.00000000 200.00000000 200.00000000 200.00000000 200.00000000 200.00000000 200.00000000 200.00000000 200.00000000 200.00000000 200.00000000 200.00000000 200.00000000 200.00000000 200.00000000 200.00000000 200.00000000 200.00000000 200.00000000 200.00000000 200.00000000 200.00000000 200.00000000 200.00000000 200.00000000 200.00000000 200.00000000 200.00000000 200.00000000 200.00000000 200.00000000 200.00000000 200.00000000 200.00000000 200.00000000 200.00000000 200.00000000 200.00000000 200.00000000 200.00000000 200.00000000 200.00000000 200.00000000 200.00000000 200.00000000 200.00000000 200.00000000 200.00000000 200.00000000 200.00000000 200.00000000 200.00000000 200.00000000 200.00000000 200.00000000 200.00000000 200.00000000 200.00000000 200.00000000 200.00000000 200.00000000 200.00000000 200.00000000 200.00000000 200.00000000 200.00000000 200.00000000 200.00000000 200.00000000 200.00000000 200.00000000 200.00000000 200.00000000 200.00000000 200.00000000 200.00000000 200.00000000 200.00000000 200.00000000 200.00000000 200.00000000 200.00000000 200.00000000 200.00000000 200.00000000 200.00000000 200.00000000 200.00000000 200.00000000 200.00000000 200.00000000 200.00000000 200.00000000 200.00000000 200.00000000 200.00000000 200.00000000 200.00000000 200.00000000 200.00000000 200.00000000 200.00000000 200.00000000 200.00000000 200.00000000 200.00000000 200.00000000 200.00000000 200.00000000 200.00000000 200.00000000 200.00000000 200.00000000 200.00000000 200.00000000 200.00000000 200.00000000 200.00000000 200.00000000 200.00000000 200.00000000 200.00000000 200.00000000 200.00000000 200.00000000 200.00000000 200.00000000 200.00000000 200.00000000 200.00000000 200.00000000 200.00000000 200.00000000 200.00000000 200.00000000 200.00000000 200.00000000 200.00000000 200.00000000 200.00000000 200.00000000 200.00000000 200.00000000 200.00000000 200.00000000 200.00000000 200.00000000 200.00000000 200.00000000 200.00000000 200.00000000 200.00000000 200.00000000 200.00000000 200.00000000 200.00000000 200.00000000 200.00000000 200.00000000 200.00000000 200.00000000 200.00000000 200.00000000 200.00000000 200.00000000 200.00000000 200.00000000 200.00000000 200.00000000 200.00000000 200.00000000 200.00000000 200.00000000 200.00000000 200.00000000 200.00000000 200.00000000 200.00000000 200.00000000 200.00000000 200.00000000 200.00000000 200.00000000 200.00000000 200.00000000 200.00000000 200.00000000 200.00000000 200.00000000 200.00000000 200.00000000 200.00000000 200.00000000 200.00000000 200.00000000 200.00000000 200.00000000 200.00000000 200.00000000 200.00000000 200.00000000 200.00000000 200.00000000 200.00000000 200.00000000 200.00000000 200.00000000 200.00000000 200.00000000 200.00000000 200.00000000 200.00000000 200.00000000 200.00000000 200.00000000 200.00000000 200.00000000 200.00000000 200.00000000 200.00000000 200.00000000 200.00000000 200.00000000 200.00000000 200.00000000 200.00000000 200.00000000 200.00000000 200.00000000 200.00000000 200.00000000 200.00000000 200.00000000 200.00000000 200.00000000 200.00000000 200.00000000 200.00000000 200.00000000 200.00000000 200.00000000 200.00000000 200.00000000 200.00000000 200.00000000 200.00000000 200.00000000 200.00000000 200.00000000 200.00000000 200.00000000 200.00000000 200.00000000 200.00000000 200.00000000 200.00000000 235.68828499 255.09606610 262.25473185 262.25473185 255.09606610 235.68828499 200.00000000 200.00000000 200.00000000 200.00000000 200.00000000 200.00000000 200.00000000 200.00000000 200.00000000 200.00000000 200.00000000 200.00000000 200.00000000 200.00000000 200.00000000 200.00000000 200.00000000 200.00000000 200.00000000 200.00000000 200.00000000 200.00000000 200.00000000 200.00000000 200.00000000 200.00000000 200.00000000 200.00000000 200.00000000 236.52643409 264.27339206 281.32676373 292.85081262 303.37340618 320.52307210 334.49486503 341.26827508 341.26827508 334.49486503 320.52307210 303.37340618 292.85081262 281.32676373 264.27339206 236.52643409 200.00000000 200.00000000 200.00000000 200.00000000 200.00000000 200.00000000 200.00000000 200.00000000 200.00000000 200.00000000 200.00000000 200.00000000 200.00000000 200.00000000 200.00000000 200.00000000 200.00000000 200.00000000 200.00000000 200.00000000 200.00000000 200.00000000 253.11029811 283.78836098 315.25450778 344.28795294 366.64548345 383.42165568 397.11897368 410.05651214 420.22571098 425.55374167 425.55374167 420.22571098 410.05651214 397.11897368 383.42165568 366.64548345 344.28795294 315.25450778 283.78836098 253.11029811 200.00000000 200.00000000 200.00000000 200.00000000 200.00000000 200.00000000 200.00000000 200.00000000 200.00000000 200.00000000 200.00000000 200.00000000 200.00000000 200.00000000 200.00000000 200.00000000 200.00000000 200.00000000 248.30138166 284.38941814 328.06522032 365.04957552 397.66252554 426.03517640 448.86963396 466.54119931 480.33341892 491.31762666 499.22746285 503.34579544 503.34579544 499.22746285 491.31762666 480.33341892 466.54119931 448.86963396 426.03517640 397.66252554 365.04957552 328.06522032 284.38941814 248.30138166 200.00000000 200.00000000 200.00000000 200.00000000 200.00000000 200.00000000 200.00000000 200.00000000 200.00000000 200.00000000 200.00000000 200.00000000 200.00000000 200.00000000 200.00000000 260.32856826 313.44214062 360.18284429 403.98251361 441.79025998 473.62635263 499.90235340 520.74628531 536.76404484 548.89291389 557.90375009 564.01985526 567.12879638 567.12879638 564.01985526 557.90375009 548.89291389 536.76404484 520.74628531 499.90235340 473.62635263 441.79025998 403.98251361 360.18284429 313.44214062 260.32856826 200.00000000 200.00000000 200.00000000 200.00000000 200.00000000 200.00000000 200.00000000 200.00000000 200.00000000 200.00000000 200.00000000 200.00000000 228.77723861 271.23156743 327.40266975 381.88114870 430.79857215 473.48485993 509.07360655 537.82010665 560.49412512 577.91152193 590.97339921 600.58097338 607.43667308 611.91635308 614.14408974 614.14408974 611.91635308 607.43667308 600.58097338 590.97339921 577.91152193 560.49412512 537.82010665 509.07360655 473.48485993 430.79857215 381.88114870 327.40266975 271.23156743 228.77723861 200.00000000 200.00000000 200.00000000 200.00000000 200.00000000 200.00000000 200.00000000 200.00000000 200.00000000 200.00000000 269.44750284 330.65741827 390.44493759 445.30711159 492.82567441 532.21657526 563.57753439 587.76837875 605.99273580 619.44814045 629.20931223 636.16895530 640.97922368 644.03468146 645.52691362 645.52691362 644.03468146 640.97922368 636.16895530 629.20931223 619.44814045 605.99273580 587.76837875 563.57753439 532.21657526 492.82567441 445.30711159 390.44493759 330.65741827 269.44750284 200.00000000 200.00000000 200.00000000 200.00000000 200.00000000 200.00000000 200.00000000 200.00000000 200.00000000 254.67776347 320.09667709 385.23132383 446.09729982 499.41991847 543.49443884 578.19178441 604.42371502 623.64866434 637.43050656 647.15716866 653.94181869 658.61558858 661.74883874 663.69022384 664.62334927 664.62334927 663.69022384 661.74883874 658.61558858 653.94181869 647.15716866 637.43050656 623.64866434 604.42371502 578.19178441 543.49443884 499.41991847 446.09729982 385.23132383 320.09667709 254.67776347 200.00000000 200.00000000 200.00000000 200.00000000 200.00000000 200.00000000 200.00000000 238.76681897 297.61190652 364.91042161 431.49359674 491.65723398 542.13768737 581.88543400 611.56167171 632.79473669 647.51526299 657.51035238 664.21624961 668.68773855 671.65068985 673.57377031 674.73615682 675.28624465 675.28624465 674.73615682 673.57377031 671.65068985 668.68773855 664.21624961 657.51035238 647.51526299 632.79473669 611.56167171 581.88543400 542.13768737 491.65723398 431.49359674 364.91042161 297.61190652 238.76681897 200.00000000 200.00000000 200.00000000 200.00000000 200.00000000 200.00000000 260.59649168 328.53669630 399.51515130 466.96491502 525.71740730 573.04717589 608.64022153 633.89352959 650.99747562 662.19562970 669.37256793 673.92687329 676.81252418 678.64161006 679.78646456 680.46010584 680.77370202 680.77370202 680.46010584 679.78646456 678.64161006 676.81252418 673.92687329 669.37256793 662.19562970 650.99747562 633.89352959 608.64022153 573.04717589 525.71740730 466.96491502 399.51515130 328.53669630 260.59649168 200.00000000 200.00000000 200.00000000 200.00000000 200.00000000 200.00000000 274.50734074 349.04783249 422.84946804 490.69795861 548.05999053 592.79250656 625.20760876 647.25457915 661.49722722 670.35261687 675.72600354 678.95173569 680.88945057 682.06016446 682.76441546 683.16685798 683.35092413 683.35092413 683.16685798 682.76441546 682.06016446 680.88945057 678.95173569 675.72600354 670.35261687 661.49722722 647.25457915 625.20760876 592.79250656 548.05999053 490.69795861 422.84946804 349.04783249 274.50734074 200.00000000 200.00000000 200.00000000 200.00000000 200.00000000 222.14190284 285.81513856 360.18797566 434.73019844 502.56166018 559.05836899 602.33847028 633.05026028 653.43170274 666.22862797 673.93084995 678.43867463 681.04210057 682.54578727 683.42123173 683.93141026 684.21609340 684.34443261 684.34443261 684.21609340 683.93141026 683.42123173 682.54578727 681.04210057 678.43867463 673.93084995 666.22862797 653.43170274 633.05026028 602.33847028 559.05836899 502.56166018 434.73019844 360.18797566 285.81513856 222.14190284 200.00000000 200.00000000 200.00000000 200.00000000 222.14190284 285.81513856 360.18797566 434.73019844 502.56166018 559.05836899 602.33847028 633.05026028 653.43170274 666.22862797 673.93084995 678.43867463 681.04210057 682.54578727 683.42123173 683.93141026 684.21609340 684.34443261 684.34443261 684.21609340 683.93141026 683.42123173 682.54578727 681.04210057 678.43867463 673.93084995 666.22862797 653.43170274 633.05026028 602.33847028 559.05836899 502.56166018 434.73019844 360.18797566 285.81513856 222.14190284 200.00000000 200.00000000 200.00000000 200.00000000 200.00000000 274.50734074 349.04783249 422.84946804 490.69795861 548.05999053 592.79250656 625.20760876 647.25457915 661.49722722 670.35261687 675.72600354 678.95173569 680.88945057 682.06016446 682.76441546 683.16685798 683.35092413 683.35092413 683.16685798 682.76441546 682.06016446 680.88945057 678.95173569 675.72600354 670.35261687 661.49722722 647.25457915 625.20760876 592.79250656 548.05999053 490.69795861 422.84946804 349.04783249 274.50734074 200.00000000 200.00000000 200.00000000 200.00000000 200.00000000 200.00000000 260.59649168 328.53669630 399.51515130 466.96491502 525.71740730 573.04717589 608.64022153 633.89352959 650.99747562 662.19562970 669.37256793 673.92687329 676.81252418 678.64161006 679.78646456 680.46010584 680.77370202 680.77370202 680.46010584 679.78646456 678.64161006 676.81252418 673.92687329 669.37256793 662.19562970 650.99747562 633.89352959 608.64022153 573.04717589 525.71740730 466.96491502 399.51515130 328.53669630 260.59649168 200.00000000 200.00000000 200.00000000 200.00000000 200.00000000 200.00000000 238.76681897 297.61190652 364.91042161 431.49359674 491.65723398 542.13768737 581.88543400 611.56167171 632.79473669 647.51526299 657.51035238 664.21624961 668.68773855 671.65068985 673.57377031 674.73615682 675.28624465 675.28624465 674.73615682 673.57377031 671.65068985 668.68773855 664.21624961 657.51035238 647.51526299 632.79473669 611.56167171 581.88543400 542.13768737 491.65723398 431.49359674 364.91042161 297.61190652 238.76681897 200.00000000 200.00000000 200.00000000 200.00000000 200.00000000 200.00000000 200.00000000 254.67776347 320.09667709 385.23132383 446.09729982 499.41991847 543.49443884 578.19178441 604.42371502 623.64866434 637.43050656 647.15716866 653.94181869 658.61558858 661.74883874 663.69022384 664.62334927 664.62334927 663.69022384 661.74883874 658.61558858 653.94181869 647.15716866 637.43050656 623.64866434 604.42371502 578.19178441 543.49443884 499.41991847 446.09729982 385.23132383 320.09667709 254.67776347 200.00000000 200.00000000 200.00000000 200.00000000 200.00000000 200.00000000 200.00000000 200.00000000 200.00000000 269.44750284 330.65741827 390.44493759 445.30711159 492.82567441 532.21657526 563.57753439 587.76837875 605.99273580 619.44814045 629.20931223 636.16895530 640.97922368 644.03468146 645.52691362 645.52691362 644.03468146 640.97922368 636.16895530 629.20931223 619.44814045 605.99273580 587.76837875 563.57753439 532.21657526 492.82567441 445.30711159 390.44493759 330.65741827 269.44750284 200.00000000 200.00000000 200.00000000 200.00000000 200.00000000 200.00000000 200.00000000 200.00000000 200.00000000 200.00000000 228.77723861 271.23156743 327.40266975 381.88114870 430.79857215 473.48485993 509.07360655 537.82010665 560.49412512 577.91152193 590.97339921 600.58097338 607.43667308 611.91635308 614.14408974 614.14408974 611.91635308 607.43667308 600.58097338 590.97339921 577.91152193 560.49412512 537.82010665 509.07360655 473.48485993 430.79857215 381.88114870 327.40266975 271.23156743 228.77723861 200.00000000 200.00000000 200.00000000 200.00000000 200.00000000 200.00000000 200.00000000 200.00000000 200.00000000 200.00000000 200.00000000 200.00000000 260.32856826 313.44214062 360.18284429 403.98251361 441.79025998 473.62635263 499.90235340 520.74628531 536.76404484 548.89291389 557.90375009 564.01985526 567.12879638 567.12879638 564.01985526 557.90375009 548.89291389 536.76404484 520.74628531 499.90235340 473.62635263 441.79025998 403.98251361 360.18284429 313.44214062 260.32856826 200.00000000 200.00000000 200.00000000 200.00000000 200.00000000 200.00000000 200.00000000 200.00000000 200.00000000 200.00000000 200.00000000 200.00000000 200.00000000 200.00000000 200.00000000 248.30138166 284.38941814 328.06522032 365.04957552 397.66252554 426.03517640 448.86963396 466.54119931 480.33341892 491.31762666 499.22746285 503.34579544 503.34579544 499.22746285 491.31762666 480.33341892 466.54119931 448.86963396 426.03517640 397.66252554 365.04957552 328.06522032 284.38941814 248.30138166 200.00000000 200.00000000 200.00000000 200.00000000 200.00000000 200.00000000 200.00000000 200.00000000 200.00000000 200.00000000 200.00000000 200.00000000 200.00000000 200.00000000 200.00000000 200.00000000 200.00000000 200.00000000 253.11029811 283.78836098 315.25450778 344.28795294 366.64548345 383.42165568 397.11897368 410.05651214 420.22571098 425.55374167 425.55374167 420.22571098 410.05651214 397.11897368 383.42165568 366.64548345 344.28795294 315.25450778 283.78836098 253.11029811 200.00000000 200.00000000 200.00000000 200.00000000 200.00000000 200.00000000 200.00000000 200.00000000 200.00000000 200.00000000 200.00000000 200.00000000 200.00000000 200.00000000 200.00000000 200.00000000 200.00000000 200.00000000 200.00000000 200.00000000 200.00000000 200.00000000 236.52643409 264.27339206 281.32676373 292.85081262 303.37340618 320.52307210 334.49486503 341.26827508 341.26827508 334.49486503 320.52307210 303.37340618 292.85081262 281.32676373 264.27339206 236.52643409 200.00000000 200.00000000 200.00000000 200.00000000 200.00000000 200.00000000 200.00000000 200.00000000 200.00000000 200.00000000 200.00000000 200.00000000 200.00000000 200.00000000 200.00000000 200.00000000 200.00000000 200.00000000 200.00000000 200.00000000 200.00000000 200.00000000 200.00000000 200.00000000 200.00000000 200.00000000 200.00000000 200.00000000 200.00000000 235.68828499 255.09606610 262.25473185 262.25473185 255.09606610 235.68828499 200.00000000 200.00000000 200.00000000 200.00000000 200.00000000 200.00000000 200.00000000 200.00000000 200.00000000 200.00000000 200.00000000 200.00000000 200.00000000 200.00000000 200.00000000 200.00000000 200.00000000 200.00000000 200.00000000 200.00000000 200.00000000 200.00000000 200.00000000 200.00000000 200.00000000 200.00000000 200.00000000 200.00000000 200.00000000 200.00000000 200.00000000 200.00000000 200.00000000 200.00000000 200.00000000 200.00000000 200.00000000 200.00000000 200.00000000 200.00000000 200.00000000 200.00000000 200.00000000 200.00000000 200.00000000 200.00000000 200.00000000 200.00000000 200.00000000 200.00000000 200.00000000 200.00000000 200.00000000 200.00000000 200.00000000 200.00000000 200.00000000 200.00000000 200.00000000 200.00000000 200.00000000 200.00000000 200.00000000 200.00000000 200.00000000 200.00000000 200.00000000 200.00000000 200.00000000 200.00000000 200.00000000 200.00000000 200.00000000 200.00000000 200.00000000 200.00000000 200.00000000 200.00000000 200.00000000 200.00000000 200.00000000 200.00000000 200.00000000 200.00000000 200.00000000 200.00000000 200.00000000 200.00000000 200.00000000 200.00000000 200.00000000 200.00000000 200.00000000 200.00000000 200.00000000 200.00000000 200.00000000 200.00000000 200.00000000 200.00000000 200.00000000 200.00000000 200.00000000 200.00000000 200.00000000 200.00000000 200.00000000 200.00000000 200.00000000 200.00000000 200.00000000 200.00000000 200.00000000 200.00000000 200.00000000 200.00000000 200.00000000 200.00000000 200.00000000 200.00000000 200.00000000 200.00000000 200.00000000 200.00000000 200.00000000 200.00000000 200.00000000 200.00000000 200.00000000 200.00000000 200.00000000 200.00000000 200.00000000 200.00000000 200.00000000 200.00000000 200.00000000 200.00000000 200.00000000 200.00000000 200.00000000 200.00000000 200.00000000 200.00000000 200.00000000 200.00000000 200.00000000 200.00000000 200.00000000 200.00000000 200.00000000 200.00000000 200.00000000 200.00000000 200.00000000 200.00000000 200.00000000 200.00000000 200.00000000 200.00000000 200.00000000 200.00000000 200.00000000 200.00000000 200.00000000 200.00000000 200.00000000 200.00000000 200.00000000 200.00000000 200.00000000 200.00000000 200.00000000 200.00000000 200.00000000 200.00000000 200.00000000 200.00000000 200.00000000 200.00000000 200.00000000 200.00000000 200.00000000 200.00000000 200.00000000 200.00000000 200.00000000 200.00000000 200.00000000 200.00000000 200.00000000 200.00000000 200.00000000 200.00000000 200.00000000 200.00000000 200.00000000 200.00000000 200.00000000 200.00000000 200.00000000 200.00000000 200.00000000 200.00000000 200.00000000 200.00000000 200.00000000 200.00000000 200.00000000 200.00000000 200.00000000 200.00000000 200.00000000 200.00000000 200.00000000 200.00000000 200.00000000 200.00000000 200.00000000 200.00000000 200.00000000 200.00000000 200.00000000 200.00000000 200.00000000 200.00000000 200.00000000 200.00000000 200.00000000 200.00000000 200.00000000 200.00000000 200.00000000 200.00000000 200.00000000 200.00000000 200.00000000 200.00000000 200.00000000 200.00000000 200.00000000 200.00000000 200.00000000 200.00000000 200.00000000 200.00000000 200.00000000 200.00000000 200.00000000 200.00000000 200.00000000 200.00000000 200.00000000 200.00000000 200.00000000 200.00000000 200.00000000 200.00000000 200.00000000 200.00000000 200.00000000 200.00000000 200.00000000 200.00000000 200.00000000 200.00000000 200.00000000 200.00000000 200.00000000 200.00000000 200.00000000 200.00000000 200.00000000 200.00000000 200.00000000 200.00000000 200.00000000 200.00000000 200.00000000 200.00000000 200.00000000 200.00000000 200.00000000 200.00000000 200.00000000 200.00000000 200.00000000 200.00000000 200.00000000 200.00000000 200.00000000 200.00000000 200.00000000 200.00000000 200.00000000 200.00000000 200.00000000 200.00000000 200.00000000 200.00000000 200.00000000 200.00000000 200.00000000 200.00000000 200.00000000 200.00000000 200.00000000 200.00000000 200.00000000 200.00000000 200.00000000 200.00000000 200.00000000 200.00000000 200.00000000 200.00000000 200.00000000 200.00000000 200.00000000 200.00000000 200.00000000 200.00000000 200.00000000 200.00000000 200.00000000 200.00000000 200.00000000 200.00000000 200.00000000 200.00000000 200.00000000 200.00000000 200.00000000 200.00000000 200.00000000 200.00000000 200.00000000 