# vtk DataFile Version 3.0
VTK - Matlab export
ASCII
DATASET STRUCTURED_POINTS
DIMENSIONS 40 40 1
SPACING 1 1 1
ORIGIN 0 0 0
POINT_DATA 1600
SCALARS Temperature float 1
LOOKUP_TABLE default
200.00000000 200.00000000 200.00000000 200.00000000 200.00000000 200.00000000 200.00000000 200.00000000 200.00000000 200.00000000 200.00000000 200.00000000 200.00000000 200.00000000 200.00000000 200.00000000 200.00000000 200.00000000 200.00000000 200.00000000 200.00000000 200.00000000 200.00000000 200.00000000 200.00000000 200.00000000 200.00000000 200.00000000 200.00000000 200.00000000 200.00000000 200.00000000 200.00000000 200.00000000 200.00000000 200.00000000 200.00000000 200.00000000 200.00000000 200.00000000 200.00000000 200.00000000 200.00000000 200.00000000 200.00000000 200.00000000 200.00000000 200.00000000 200.00000000 200.00000000 200.00000000 200.00000000 200.00000000 200.00000000 200.00000000 200.00000000 200.00000000 200.00000000 200.00000000 200.00000000 200.00000000 200.00000000 200.00000000 200.00000000 200.00000000 200.00000000 200.00000000 200.00000000 200.00000000 200.00000000 200.00000000 200.00000000 200.00000000 200.00000000 200.00000000 200.00000000 200.00000000 200.00000000 200.00000000 200.00000000 200.00000000 200.00000000 200.00000000 200.00000000 200.00000000 200.00000000 200.00000000 200.00000000 200.00000000 200.00000000 200.00000000 200.00000000 200.00000000 200.00000000 200.00000000 200.00000000 200.00000000 200.00000000 200.00000000 200.00000000 200.00000000 200.00000000 200.00000000 200.00000000 200.00000000 200.00000000 200.00000000 200.00000000 200.00000000 200.00000000 200.00000000 200.00000000 200.00000000 200.00000000 200.00000000 200.00000000 200.00000000 200.00000000 200.00000000 200.00000000 200.00000000 200.00000000 200.00000000 200.00000000 200.00000000 200.00000000 200.00000000 200.00000000 200.00000000 200.00000000 200.00000000 200.00000000 200.00000000 200.00000000 200.00000000 200.00000000 200.00000000 200.00000000 200.00000000 200.00000000 200.00000000 200.00000000 200.00000000 200.00000000 200.00000000 200.00000000 200.00000000 200.00000000 200.00000000 200.00000000 200.00000000 200.00000000 200.00000000 200.00000000 200.00000000 200.00000000 200.00000000 200.00000000 200.00000000 200.00000000 200.00000000 200.00000000 200.00000000 200.00000000 200.00000000 200.00000000 200.00000000 200.00000000 200.00000000 200.00000000 200.00000000 200.00000000 200.00000000 200.00000000 200.00000000 200.00000000 200.00000000 200.00000000 200.00000000 200.00000000 200.00000000 200.00000000 200.00000000 200.00000000 200.00000000 200.00000000 200.00000000 200.00000000 200.00000000 200.00000000 200.00000000 200.00000000 200.00000000 200.00000000 200.00000000 200.00000000 200.00000000 200.00000000 200.00000000 200.00000000 200.00000000 200.00000000 200.00000000 200.00000000 200.00000000 200.00000000 200.00000000 200.00000000 200.00000000 200.00000000 200.00000000 200.00000000 200.00000000 200.00000000 200.00000000 200.00000000 200.00000000 200.00000000 200.00000000 200.00000000 200.00000000 200.00000000 200.00000000 200.00000000 200.00000000 200.00000000 200.00000000 200.00000000 200.00000000 200.00000000 200.00000000 200.00000000 200.00000000 200.00000000 200.00000000 200.00000000 200.00000000 200.00000000 200.00000000 200.00000000 200.00000000 200.00000000 200.00000000 200.00000000 200.00000000 200.00000000 200.00000000 200.00000000 200.00000000 200.00000000 200.00000000 200.00000000 200.00000000 200.00000000 200.00000000 200.00000000 200.00000000 200.00000000 200.00000000 200.00000000 200.00000000 200.00000000 200.00000000 200.00000000 200.00000000 200.00000000 200.00000000 200.00000000 200.00000000 200.00000000 200.00000000 200.00000000 200.00000000 200.00000000 200.00000000 200.00000000 200.00000000 200.00000000 200.00000000 200.00000000 200.00000000 200.00000000 200.00000000 200.00000000 200.00000000 200.00000000 200.00000000 200.00000000 200.00000000 200.00000000 200.00000000 200.00000000 200.00000000 200.00000000 200.00000000 200.00000000 200.00000000 200.00000000 200.00000000 200.00000000 200.00000000 200.00000000 200.00000000 200.00000000 200.00000000 200.00000000 200.00000000 200.00000000 200.00000000 200.00000000 200.00000000 200.00000000 200.00000000 200.00000000 200.00000000 200.00000000 200.00000000 200.00000000 200.00000000 200.00000000 200.00000000 200.00000000 200.00000000 200.00000000 200.00000000 200.00000000 200.00000000 200.00000000 200.00000000 200.00000000 200.00000000 200.00000000 200.00000000 200.00000000 200.00000000 200.00000000 200.00000000 255.49478730 286.72011490 298.57527048 298.57527048 286.72011490 255.49478730 200.00000000 200.00000000 200.00000000 200.00000000 200.00000000 200.00000000 200.00000000 200.00000000 200.00000000 200.00000000 200.00000000 200.00000000 200.00000000 200.00000000 200.00000000 200.00000000 200.00000000 200.00000000 200.00000000 200.00000000 200.00000000 200.00000000 200.00000000 200.00000000 200.00000000 200.00000000 200.00000000 200.00000000 200.00000000 257.32335173 300.52409677 325.85811534 341.76630279 356.28163979 382.31617890 404.44588288 415.42989422 415.42989422 404.44588288 382.31617890 356.28163979 341.76630279 325.85811534 300.52409677 257.32335173 200.00000000 200.00000000 200.00000000 200.00000000 200.00000000 200.00000000 200.00000000 200.00000000 200.00000000 200.00000000 200.00000000 200.00000000 200.00000000 200.00000000 200.00000000 200.00000000 200.00000000 200.00000000 200.00000000 200.00000000 200.00000000 200.00000000 283.70891955 330.49774997 377.13082110 418.74595141 448.57373589 469.01099315 485.20913877 501.84761547 515.86488650 523.45177625 523.45177625 515.86488650 501.84761547 485.20913877 469.01099315 448.57373589 418.74595141 377.13082110 330.49774997 283.70891955 200.00000000 200.00000000 200.00000000 200.00000000 200.00000000 200.00000000 200.00000000 200.00000000 200.00000000 200.00000000 200.00000000 200.00000000 200.00000000 200.00000000 200.00000000 200.00000000 200.00000000 200.00000000 276.68294725 331.88864874 396.87912946 448.19118847 490.23212751 524.31526919 549.20165053 566.43313730 579.10362674 589.68433355 597.91429323 602.40094311 602.40094311 597.91429323 589.68433355 579.10362674 566.43313730 549.20165053 524.31526919 490.23212751 448.19118847 396.87912946 331.88864874 276.68294725 200.00000000 200.00000000 200.00000000 200.00000000 200.00000000 200.00000000 200.00000000 200.00000000 200.00000000 200.00000000 200.00000000 200.00000000 200.00000000 200.00000000 200.00000000 295.53178109 376.48117105 442.50946911 499.50167424 543.55051625 576.45135595 600.62680651 617.48997729 628.81474733 636.66404529 642.55925694 646.83600375 649.12662133 649.12662133 646.83600375 642.55925694 636.66404529 628.81474733 617.48997729 600.62680651 576.45135595 543.55051625 499.50167424 442.50946911 376.48117105 295.53178109 200.00000000 200.00000000 200.00000000 200.00000000 200.00000000 200.00000000 200.00000000 200.00000000 200.00000000 200.00000000 200.00000000 200.00000000 247.14148468 314.00987284 398.16686227 473.00223726 532.52192068 577.74339288 609.89523396 631.84052587 646.53638319 656.11642562 662.23285893 666.24020401 669.04158995 670.96552946 671.97285632 671.97285632 670.96552946 669.04158995 666.24020401 662.23285893 656.11642562 646.53638319 631.84052587 609.89523396 577.74339288 532.52192068 473.00223726 398.16686227 314.00987284 247.14148468 200.00000000 200.00000000 200.00000000 200.00000000 200.00000000 200.00000000 200.00000000 200.00000000 200.00000000 200.00000000 312.96258290 405.63364295 486.64313185 550.88426668 597.48316755 629.18784575 649.58266222 662.22108984 669.92862702 674.57838852 677.37017230 679.09757055 680.23632942 680.98377808 681.36642952 681.36642952 680.98377808 680.23632942 679.09757055 677.37017230 674.57838852 669.92862702 662.22108984 649.58266222 629.18784575 597.48316755 550.88426668 486.64313185 405.63364295 312.96258290 200.00000000 200.00000000 200.00000000 200.00000000 200.00000000 200.00000000 200.00000000 200.00000000 200.00000000 291.28700913 393.61694927 483.96298507 555.24774024 605.88434751 638.77814265 658.73240682 670.22790275 676.64094895 680.18299256 682.14456180 683.24303789 683.88313352 684.28300147 684.53511889 684.66143302 684.66143302 684.53511889 684.28300147 683.88313352 683.24303789 682.14456180 680.18299256 676.64094895 670.22790275 658.73240682 638.77814265 605.88434751 555.24774024 483.96298507 393.61694927 291.28700913 200.00000000 200.00000000 200.00000000 200.00000000 200.00000000 200.00000000 200.00000000 266.90764439 363.04726766 461.67710541 543.88635603 602.91455854 640.45925297 662.13217166 673.76493988 679.70093549 682.64688104 684.10469092 684.83792739 685.21740161 685.42468385 685.54748246 685.62200762 685.65855625 685.65855625 685.62200762 685.54748246 685.42468385 685.21740161 684.83792739 684.10469092 682.64688104 679.70093549 673.76493988 662.13217166 640.45925297 602.91455854 543.88635603 461.67710541 363.04726766 266.90764439 200.00000000 200.00000000 200.00000000 200.00000000 200.00000000 200.00000000 304.39437972 412.92941961 510.42980276 584.43710178 632.57383113 659.99565539 674.02336513 680.63808998 683.58985074 684.87132073 685.42944543 685.68015671 685.79848394 685.85860419 685.89230320 685.91198808 685.92143294 685.92143294 685.91198808 685.89230320 685.85860419 685.79848394 685.68015671 685.42944543 684.87132073 683.58985074 680.63808998 674.02336513 659.99565539 632.57383113 584.43710178 510.42980276 412.92941961 304.39437972 200.00000000 200.00000000 200.00000000 200.00000000 200.00000000 200.00000000 327.74368813 444.46727202 540.72467247 608.38310992 648.87709562 669.85433541 679.47338638 683.47622598 685.03000929 685.61099330 685.82863148 685.91375214 685.94960629 685.96632346 685.97515343 685.98012976 685.98247279 685.98247279 685.98012976 685.97515343 685.96632346 685.94960629 685.91375214 685.82863148 685.61099330 685.03000929 683.47622598 679.47338638 669.85433541 648.87709562 608.38310992 540.72467247 444.46727202 327.74368813 200.00000000 200.00000000 200.00000000 200.00000000 200.00000000 238.70587343 347.05488829 461.27987889 555.32051742 619.30829649 655.91579151 673.84711644 681.52232803 684.45615615 685.48253341 685.82161190 685.93208745 685.96957924 685.98351526 685.98942898 685.99238958 685.99403187 685.99480565 685.99480565 685.99403187 685.99238958 685.98942898 685.98351526 685.96957924 685.93208745 685.82161190 685.48253341 684.45615615 681.52232803 673.84711644 655.91579151 619.30829649 555.32051742 461.27987889 347.05488829 238.70587343 200.00000000 200.00000000 200.00000000 200.00000000 238.70587343 347.05488829 461.27987889 555.32051742 619.30829649 655.91579151 673.84711644 681.52232803 684.45615615 685.48253341 685.82161190 685.93208745 685.96957924 685.98351526 685.98942898 685.99238958 685.99403187 685.99480565 685.99480565 685.99403187 685.99238958 685.98942898 685.98351526 685.96957924 685.93208745 685.82161190 685.48253341 684.45615615 681.52232803 673.84711644 655.91579151 619.30829649 555.32051742 461.27987889 347.05488829 238.70587343 200.00000000 200.00000000 200.00000000 200.00000000 200.00000000 327.74368813 444.46727202 540.72467247 608.38310992 648.87709562 669.85433541 679.47338638 683.47622598 685.03000929 685.61099330 685.82863148 685.91375214 685.94960629 685.96632346 685.97515343 685.98012976 685.98247279 685.98247279 685.98012976 685.97515343 685.96632346 685.94960629 685.91375214 685.82863148 685.61099330 685.03000929 683.47622598 679.47338638 669.85433541 648.87709562 608.38310992 540.72467247 444.46727202 327.74368813 200.00000000 200.00000000 200.00000000 200.00000000 200.00000000 200.00000000 304.39437972 412.92941961 510.42980276 584.43710178 632.57383113 659.99565539 674.02336513 680.63808998 683.58985074 684.87132073 685.42944543 685.68015671 685.79848394 685.85860419 685.89230320 685.91198808 685.92143294 685.92143294 685.91198808 685.89230320 685.85860419 685.79848394 685.68015671 685.42944543 684.87132073 683.58985074 680.63808998 674.02336513 659.99565539 632.57383113 584.43710178 510.42980276 412.92941961 304.39437972 200.00000000 200.00000000 200.00000000 200.00000000 200.00000000 200.00000000 266.90764439 363.04726766 461.67710541 543.88635603 602.91455854 640.45925297 662.13217166 673.76493988 679.70093549 682.64688104 684.10469092 684.83792739 685.21740161 685.42468385 685.54748246 685.62200762 685.65855625 685.65855625 685.62200762 685.54748246 685.42468385 685.21740161 684.83792739 684.10469092 682.64688104 679.70093549 673.76493988 662.13217166 640.45925297 602.91455854 543.88635603 461.67710541 363.04726766 266.90764439 200.00000000 200.00000000 200.00000000 200.00000000 200.00000000 200.00000000 200.00000000 291.28700913 393.61694927 483.96298507 555.24774024 605.88434751 638.77814265 658.73240682 670.22790275 676.64094895 680.18299256 682.14456180 683.24303789 683.88313352 684.28300147 684.53511889 684.66143302 684.66143302 684.53511889 684.28300147 683.88313352 683.24303789 682.14456180 680.18299256 676.64094895 670.22790275 658.73240682 638.77814265 605.88434751 555.24774024 483.96298507 393.61694927 291.28700913 200.00000000 200.00000000 200.00000000 200.00000000 200.00000000 200.00000000 200.00000000 200.00000000 200.00000000 312.96258290 405.63364295 486.64313185 550.88426668 597.48316755 629.18784575 649.58266222 662.22108984 669.92862702 674.57838852 677.37017230 679.09757055 680.23632942 680.98377808 681.36642952 681.36642952 680.98377808 680.23632942 679.09757055 677.37017230 674.57838852 669.92862702 662.22108984 649.58266222 629.18784575 597.48316755 550.88426668 486.64313185 405.63364295 312.96258290 200.00000000 200.00000000 200.00000000 200.00000000 200.00000000 200.00000000 200.00000000 200.00000000 200.00000000 200.00000000 247.14148468 314.00987284 398.16686227 473.00223726 532.52192068 577.74339288 609.89523396 631.84052587 646.53638319 656.11642562 662.23285893 666.24020401 669.04158995 670.96552946 671.97285632 671.97285632 670.96552946 669.04158995 666.24020401 662.23285893 656.11642562 646.53638319 631.84052587 609.89523396 577.74339288 532.52192068 473.00223726 398.16686227 314.00987284 247.14148468 200.00000000 200.00000000 200.00000000 200.00000000 200.00000000 200.00000000 200.00000000 200.00000000 200.00000000 200.00000000 200.00000000 200.00000000 295.53178109 376.48117105 442.50946911 499.50167424 543.55051625 576.45135595 600.62680651 617.48997729 628.81474733 636.66404529 642.55925694 646.83600375 649.12662133 649.12662133 646.83600375 642.55925694 636.66404529 628.81474733 617.48997729 600.62680651 576.45135595 543.55051625 499.50167424 442.50946911 376.48117105 295.53178109 200.00000000 200.00000000 200.00000000 200.00000000 200.00000000 200.00000000 200.00000000 200.00000000 200.00000000 200.00000000 200.00000000 200.00000000 200.00000000 200.00000000 200.00000000 276.68294725 331.88864874 396.87912946 448.19118847 490.23212751 524.31526919 549.20165053 566.43313730 579.10362674 589.68433355 597.91429323 602.40094311 602.40094311 597.91429323 589.68433355 579.10362674 566.43313730 549.20165053 524.31526919 490.23212751 448.19118847 396.87912946 331.88864874 276.68294725 200.00000000 200.00000000 200.00000000 200.00000000 200.00000000 200.00000000 200.00000000 200.00000000 200.00000000 200.00000000 200.00000000 200.00000000 200.00000000 200.00000000 200.00000000 200.00000000 200.00000000 200.00000000 283.70891955 330.49774997 377.13082110 418.74595141 448.57373589 469.01099315 485.20913877 501.84761547 515.86488650 523.45177625 523.45177625 515.86488650 501.84761547 485.20913877 469.01099315 448.57373589 418.74595141 377.13082110 330.49774997 283.70891955 200.00000000 200.00000000 200.00000000 200.00000000 200.00000000 200.00000000 200.00000000 200.00000000 200.00000000 200.00000000 200.00000000 200.00000000 200.00000000 200.00000000 200.00000000 200.00000000 200.00000000 200.00000000 200.00000000 200.00000000 200.00000000 200.00000000 257.32335173 300.52409677 325.85811534 341.76630279 356.28163979 382.31617890 404.44588288 415.42989422 415.42989422 404.44588288 382.31617890 356.28163979 341.76630279 325.85811534 300.52409677 257.32335173 200.00000000 200.00000000 200.00000000 200.00000000 200.00000000 200.00000000 200.00000000 200.00000000 200.00000000 200.00000000 200.00000000 200.00000000 200.00000000 200.00000000 200.00000000 200.00000000 200.00000000 200.00000000 200.00000000 200.00000000 200.00000000 200.00000000 200.00000000 200.00000000 200.00000000 200.00000000 200.00000000 200.00000000 200.00000000 255.49478730 286.72011490 298.57527048 298.57527048 286.72011490 255.49478730 200.00000000 200.00000000 200.00000000 200.00000000 200.00000000 200.00000000 200.00000000 200.00000000 200.00000000 200.00000000 200.00000000 200.00000000 200.00000000 200.00000000 200.00000000 200.00000000 200.00000000 200.00000000 200.00000000 200.00000000 200.00000000 200.00000000 200.00000000 200.00000000 200.00000000 200.00000000 200.00000000 200.00000000 200.00000000 200.00000000 200.00000000 200.00000000 200.00000000 200.00000000 200.00000000 200.00000000 200.00000000 200.00000000 200.00000000 200.00000000 200.00000000 200.00000000 200.00000000 200.00000000 200.00000000 200.00000000 200.00000000 200.00000000 200.00000000 200.00000000 200.00000000 200.00000000 200.00000000 200.00000000 200.00000000 200.00000000 200.00000000 200.00000000 200.00000000 200.00000000 200.00000000 200.00000000 200.00000000 200.00000000 200.00000000 200.00000000 200.00000000 200.00000000 200.00000000 200.00000000 200.00000000 200.00000000 200.00000000 200.00000000 200.00000000 200.00000000 200.00000000 200.00000000 200.00000000 200.00000000 200.00000000 200.00000000 200.00000000 200.00000000 200.00000000 200.00000000 200.00000000 200.00000000 200.00000000 200.00000000 200.00000000 200.00000000 200.00000000 200.00000000 200.00000000 200.00000000 200.00000000 200.00000000 200.00000000 200.00000000 200.00000000 200.00000000 200.00000000 200.00000000 200.00000000 200.00000000 200.00000000 200.00000000 200.00000000 200.00000000 200.00000000 200.00000000 200.00000000 200.00000000 200.00000000 200.00000000 200.00000000 200.00000000 200.00000000 200.00000000 200.00000000 200.00000000 200.00000000 200.00000000 200.00000000 200.00000000 200.00000000 200.00000000 200.00000000 200.00000000 200.00000000 200.00000000 200.00000000 200.00000000 200.00000000 200.00000000 200.00000000 200.00000000 200.00000000 200.00000000 200.00000000 200.00000000 200.00000000 200.00000000 200.00000000 200.00000000 200.00000000 200.00000000 200.00000000 200.00000000 200.00000000 200.00000000 200.00000000 200.00000000 200.00000000 200.00000000 200.00000000 200.00000000 200.00000000 200.00000000 200.00000000 200.00000000 200.00000000 200.00000000 200.00000000 200.00000000 200.00000000 200.00000000 200.00000000 200.00000000 200.00000000 200.00000000 200.00000000 200.00000000 200.00000000 200.00000000 200.00000000 200.00000000 200.00000000 200.00000000 200.00000000 200.00000000 200.00000000 200.00000000 200.00000000 200.00000000 200.00000000 200.00000000 200.00000000 200.00000000 200.00000000 200.00000000 200.00000000 200.00000000 200.00000000 200.00000000 200.00000000 200.00000000 200.00000000 200.00000000 200.00000000 200.00000000 200.00000000 200.00000000 200.00000000 200.00000000 200.00000000 200.00000000 200.00000000 200.00000000 200.00000000 200.00000000 200.00000000 200.00000000 200.00000000 200.00000000 200.00000000 200.00000000 200.00000000 200.00000000 200.00000000 200.00000000 200.00000000 200.00000000 200.00000000 200.00000000 200.00000000 200.00000000 200.00000000 200.00000000 200.00000000 200.00000000 200.00000000 200.00000000 200.00000000 200.00000000 200.00000000 200.00000000 200.00000000 200.00000000 200.00000000 200.00000000 200.00000000 200.00000000 200.00000000 200.00000000 200.00000000 200.00000000 200.00000000 200.00000000 200.00000000 200.00000000 200.00000000 200.00000000 200.00000000 200.00000000 200.00000000 200.00000000 200.00000000 200.00000000 200.00000000 200.00000000 200.00000000 200.00000000 200.00000000 200.00000000 200.00000000 200.00000000 200.00000000 200.00000000 200.00000000 200.00000000 200.00000000 200.00000000 200.00000000 200.00000000 200.00000000 200.00000000 200.00000000 200.00000000 200.00000000 200.00000000 200.00000000 200.00000000 200.00000000 200.00000000 200.00000000 200.00000000 200.00000000 200.00000000 200.00000000 200.00000000 200.00000000 200.00000000 200.00000000 200.00000000 200.00000000 200.00000000 200.00000000 200.00000000 200.00000000 200.00000000 200.00000000 200.00000000 200.00000000 200.00000000 200.00000000 200.00000000 200.00000000 200.00000000 200.00000000 200.00000000 200.00000000 200.00000000 200.00000000 200.00000000 200.00000000 200.00000000 200.00000000 200.00000000 200.00000000 200.00000000 200.00000000 200.00000000 200.00000000 200.00000000 200.00000000 200.00000000 200.00000000 200.00000000 200.00000000 200.00000000 200.00000000 200.00000000 200.00000000 200.00000000 200.00000000 