# vtk DataFile Version 3.0
VTK - Matlab export
ASCII
DATASET STRUCTURED_POINTS
DIMENSIONS 40 40 1
SPACING 1 1 1
ORIGIN 0 0 0
POINT_DATA 1600
SCALARS lambda-2 float 1
LOOKUP_TABLE default
8.35311101 8.35311101 8.35311101 8.35311101 8.35311101 8.35311101 8.35311101 8.35311101 8.35311101 8.35311101 8.35311101 8.35311101 8.35311101 8.35311101 8.35311101 8.35311101 8.35311101 8.35311101 8.35311101 8.35311101 8.35311101 8.35311101 8.35311101 8.35311101 8.35311101 8.35311101 8.35311101 8.35311101 8.35311101 8.35311101 8.35311101 8.35311101 8.35311101 8.35311101 8.35311101 8.35311101 8.35311101 8.35311101 8.35311101 8.35311101 8.35311101 8.35311101 8.35311101 8.35311101 8.35311101 8.35311101 8.35311101 8.35311101 8.35311101 8.35311101 8.35311101 8.35311101 8.35311101 8.35311101 8.35311101 8.35311101 8.35311101 8.35311101 8.35311101 8.35311101 8.35311101 8.35311101 8.35311101 8.35311101 8.35311101 8.35311101 8.35311101 8.35311101 8.35311101 8.35311101 8.35311101 8.35311101 8.35311101 8.35311101 8.35311101 8.35311101 8.35311101 8.35311101 8.35311101 8.35311101 8.35311101 8.35311101 8.35311101 8.35311101 8.35311101 8.35311101 8.35311101 8.35311101 8.35311101 8.35311101 8.35311101 8.35311101 8.35311101 8.35311101 8.35311101 8.35311101 8.35311101 8.35311101 8.35311101 8.35311101 8.35311101 8.35311101 8.35311101 8.35311101 8.35311101 8.35311101 8.35311101 8.35311101 8.35311101 8.35311101 8.35311101 8.35311101 8.35311101 8.35311101 8.35311101 8.35311101 8.35311101 8.35311101 8.35311101 8.35311101 8.35311101 8.35311101 8.35311101 8.35311101 8.35311101 8.35311101 8.35311101 8.35311101 8.35311101 8.35311101 8.35311101 8.35311101 8.35311101 8.35311101 8.35311101 8.35311101 8.35311101 8.35311101 8.35311101 8.35311101 8.35311101 8.35311101 8.35311101 8.35311101 8.35311101 8.35311101 8.35311101 8.35311101 8.35311101 8.35311101 8.35311101 8.35311101 8.35311101 8.35311101 8.35311101 8.35311101 8.35311101 8.35311101 8.35311101 8.35311101 8.35311101 8.35311101 8.35311101 8.35311101 8.35311101 8.35311101 8.35311101 8.35311101 8.35311101 8.35311101 8.35311101 8.35311101 8.35311101 8.35311101 8.35311101 8.35311101 8.35311101 8.35311101 8.35311101 8.35311101 8.35311101 8.35311101 8.35311101 8.35311101 8.35311101 8.35311101 8.35311101 8.35311101 8.35311101 8.35311101 8.35311101 8.35311101 8.35311101 8.35311101 8.35311101 8.35311101 8.35311101 8.35311101 8.35311101 8.35311101 8.35311101 8.35311101 8.35311101 8.35311101 8.35311101 8.35311101 8.35311101 8.35311101 8.35311101 8.35311101 8.35311101 8.35311101 8.35311101 8.35311101 8.35311101 8.35311101 8.35311101 8.35311101 8.35311101 8.35311101 8.35311101 8.35311101 8.35311101 8.35311101 8.35311101 8.35311101 8.35311101 8.35311101 8.35311101 8.35311101 8.35311101 8.35311101 8.35311101 8.35311101 8.35311101 8.35311101 8.35311101 8.35311101 8.35311101 8.35311101 8.35311101 8.35311101 8.35311101 8.35311101 8.35311101 8.35311101 8.35311101 8.35311101 8.35311101 8.35311101 8.35311101 8.35311101 8.35311101 8.35311101 8.35311101 8.35311101 8.35311101 8.35311101 8.35311101 8.35311101 8.35311101 8.35311101 8.35311101 8.35311101 8.35311101 8.35311101 8.35311101 8.35311101 8.35311101 8.35311101 8.35311101 8.35311101 8.35311101 8.35311101 8.35311101 8.35311101 8.35311101 8.35311101 8.35311101 8.35311101 8.35311101 8.35311101 8.35311101 8.35311101 8.35311101 8.35311101 8.35311101 8.35311101 8.35311101 8.35311101 8.35311101 8.35311101 8.35311101 8.35311101 8.35311101 8.35311101 8.35311101 8.35311101 8.35311101 8.35311101 8.35311101 8.35311101 8.35311101 8.35311101 8.35311101 8.35311101 8.35311101 8.35311101 8.35311101 8.35311101 8.35311101 8.35311101 8.35311101 8.35311101 8.35311101 8.35311101 8.35311101 8.35311101 8.35311101 8.35311101 8.35311101 8.35311101 8.35311101 8.35311101 8.35311101 8.35311101 8.35311101 8.35311101 8.35311101 8.35311101 8.35311101 8.35311101 8.35311101 8.35311101 8.35311101 8.35311101 8.35311101 8.35142042 8.35051222 8.35018072 8.35018072 8.35051222 8.35142042 8.35311101 8.35311101 8.35311101 8.35311101 8.35311101 8.35311101 8.35311101 8.35311101 8.35311101 8.35311101 8.35311101 8.35311101 8.35311101 8.35311101 8.35311101 8.35311101 8.35311101 8.35311101 8.35311101 8.35311101 8.35311101 8.35311101 8.35311101 8.35311101 8.35311101 8.35311101 8.35311101 8.35311101 8.35311101 8.35132732 8.34999276 8.34918362 8.34864415 8.34815717 8.34736222 8.34671988 8.34641110 8.34641110 8.34671988 8.34736222 8.34815717 8.34864415 8.34918362 8.34999276 8.35132732 8.35311101 8.35311101 8.35311101 8.35311101 8.35311101 8.35311101 8.35311101 8.35311101 8.35311101 8.35311101 8.35311101 8.35311101 8.35311101 8.35311101 8.35311101 8.35311101 8.35311101 8.35311101 8.35311101 8.35311101 8.35311101 8.35311101 8.35046325 8.34895569 8.34743043 8.34604021 8.34498190 8.34419796 8.34356720 8.34297768 8.34251857 8.34227991 8.34227991 8.34251857 8.34297768 8.34356720 8.34419796 8.34498190 8.34604021 8.34743043 8.34895569 8.35046325 8.35311101 8.35311101 8.35311101 8.35311101 8.35311101 8.35311101 8.35311101 8.35311101 8.35311101 8.35311101 8.35311101 8.35311101 8.35311101 8.35311101 8.35311101 8.35311101 8.35311101 8.35311101 8.35065472 8.34883380 8.34665256 8.34482034 8.34322339 8.34185400 8.34076994 8.33994792 8.33932153 8.33883348 8.33848784 8.33830990 8.33830990 8.33848784 8.33883348 8.33932153 8.33994792 8.34076994 8.34185400 8.34322339 8.34482034 8.34665256 8.34883380 8.35065472 8.35311101 8.35311101 8.35311101 8.35311101 8.35311101 8.35311101 8.35311101 8.35311101 8.35311101 8.35311101 8.35311101 8.35311101 8.35311101 8.35311101 8.35311101 8.35000795 8.34728397 8.34488583 8.34264729 8.34072792 8.33913535 8.33785273 8.33686955 8.33614707 8.33562780 8.33526076 8.33502104 8.33490212 8.33490212 8.33502104 8.33526076 8.33562780 8.33614707 8.33686955 8.33785273 8.33913535 8.34072792 8.34264729 8.34488583 8.34728397 8.35000795 8.35311101 8.35311101 8.35311101 8.35311101 8.35311101 8.35311101 8.35311101 8.35311101 8.35311101 8.35311101 8.35311101 8.35311101 8.35162725 8.34942601 8.34649863 8.34363256 8.34103541 8.33876539 8.33689155 8.33542045 8.33431996 8.33354110 8.33302010 8.33268782 8.33248409 8.33236740 8.33231431 8.33231431 8.33236740 8.33248409 8.33268782 8.33302010 8.33354110 8.33431996 8.33542045 8.33689155 8.33876539 8.34103541 8.34363256 8.34649863 8.34942601 8.35162725 8.35311101 8.35311101 8.35311101 8.35311101 8.35311101 8.35311101 8.35311101 8.35311101 8.35311101 8.35311101 8.34951751 8.34630430 8.34309953 8.34009081 8.33743709 8.33522920 8.33350964 8.33226410 8.33143545 8.33094294 8.33069604 8.33060701 8.33060183 8.33062630 8.33064656 8.33064656 8.33062630 8.33060183 8.33060701 8.33069604 8.33094294 8.33143545 8.33226410 8.33350964 8.33522920 8.33743709 8.34009081 8.34309953 8.34630430 8.34951751 8.35311101 8.35311101 8.35311101 8.35311101 8.35311101 8.35311101 8.35311101 8.35311101 8.35311101 8.35029447 8.34687294 8.34336879 8.33997355 8.33688714 8.33426661 8.33220223 8.33071622 8.32976800 8.32927088 8.32911359 8.32917938 8.32936101 8.32957061 8.32974396 8.32984037 8.32984037 8.32974396 8.32957061 8.32936101 8.32917938 8.32911359 8.32927088 8.32976800 8.33071622 8.33220223 8.33426661 8.33688714 8.33997355 8.34336879 8.34687294 8.35029447 8.35311101 8.35311101 8.35311101 8.35311101 8.35311101 8.35311101 8.35311101 8.35113050 8.34808252 8.34449970 8.34080353 8.33728779 8.33418354 8.33165358 8.32978057 8.32856622 8.32794249 8.32779286 8.32797753 8.32835599 8.32880359 8.32922078 8.32953602 8.32970434 8.32970434 8.32953602 8.32922078 8.32880359 8.32835599 8.32797753 8.32779286 8.32794249 8.32856622 8.32978057 8.33165358 8.33418354 8.33728779 8.34080353 8.34449970 8.34808252 8.35113050 8.35311101 8.35311101 8.35311101 8.35311101 8.35311101 8.35311101 8.35001452 8.34647443 8.34262976 8.33876849 8.33517595 8.33208969 8.32967233 8.32799631 8.32704385 8.32672187 8.32688744 8.32737653 8.32802919 8.32870701 8.32930184 8.32973737 8.32996629 8.32996629 8.32973737 8.32930184 8.32870701 8.32802919 8.32737653 8.32688744 8.32672187 8.32704385 8.32799631 8.32967233 8.33208969 8.33517595 8.33876849 8.34262976 8.34647443 8.35001452 8.35311101 8.35311101 8.35311101 8.35311101 8.35311101 8.35311101 8.34929977 8.34539549 8.34134302 8.33736320 8.33372665 8.33066962 8.32835171 8.32683600 8.32608924 8.32599922 8.32640329 8.32711982 8.32797517 8.32882158 8.32954546 8.33006781 8.33034028 8.33034028 8.33006781 8.32954546 8.32882158 8.32797517 8.32711982 8.32640329 8.32599922 8.32608924 8.32683600 8.32835171 8.33066962 8.33372665 8.33736320 8.34134302 8.34539549 8.34929977 8.35311101 8.35311101 8.35311101 8.35311101 8.35311101 8.35198430 8.34872200 8.34480719 8.34067924 8.33664518 8.33299046 8.32995402 8.32769389 8.32626780 8.32563395 8.32566977 8.32620207 8.32703998 8.32800280 8.32893809 8.32972966 8.33029738 8.33059255 8.33059255 8.33029738 8.32972966 8.32893809 8.32800280 8.32703998 8.32620207 8.32566977 8.32563395 8.32626780 8.32769389 8.32995402 8.33299046 8.33664518 8.34067924 8.34480719 8.34872200 8.35198430 8.35311101 8.35311101 8.35311101 8.35311101 8.35198430 8.34872200 8.34480719 8.34067924 8.33664518 8.33299046 8.32995402 8.32769389 8.32626780 8.32563395 8.32566977 8.32620207 8.32703998 8.32800280 8.32893809 8.32972966 8.33029738 8.33059255 8.33059255 8.33029738 8.32972966 8.32893809 8.32800280 8.32703998 8.32620207 8.32566977 8.32563395 8.32626780 8.32769389 8.32995402 8.33299046 8.33664518 8.34067924 8.34480719 8.34872200 8.35198430 8.35311101 8.35311101 8.35311101 8.35311101 8.35311101 8.34929977 8.34539549 8.34134302 8.33736320 8.33372665 8.33066962 8.32835171 8.32683600 8.32608924 8.32599922 8.32640329 8.32711982 8.32797517 8.32882158 8.32954546 8.33006781 8.33034028 8.33034028 8.33006781 8.32954546 8.32882158 8.32797517 8.32711982 8.32640329 8.32599922 8.32608924 8.32683600 8.32835171 8.33066962 8.33372665 8.33736320 8.34134302 8.34539549 8.34929977 8.35311101 8.35311101 8.35311101 8.35311101 8.35311101 8.35311101 8.35001452 8.34647443 8.34262976 8.33876849 8.33517595 8.33208969 8.32967233 8.32799631 8.32704385 8.32672187 8.32688744 8.32737653 8.32802919 8.32870701 8.32930184 8.32973737 8.32996629 8.32996629 8.32973737 8.32930184 8.32870701 8.32802919 8.32737653 8.32688744 8.32672187 8.32704385 8.32799631 8.32967233 8.33208969 8.33517595 8.33876849 8.34262976 8.34647443 8.35001452 8.35311101 8.35311101 8.35311101 8.35311101 8.35311101 8.35311101 8.35113050 8.34808252 8.34449970 8.34080353 8.33728779 8.33418354 8.33165358 8.32978057 8.32856622 8.32794249 8.32779286 8.32797753 8.32835599 8.32880359 8.32922078 8.32953602 8.32970434 8.32970434 8.32953602 8.32922078 8.32880359 8.32835599 8.32797753 8.32779286 8.32794249 8.32856622 8.32978057 8.33165358 8.33418354 8.33728779 8.34080353 8.34449970 8.34808252 8.35113050 8.35311101 8.35311101 8.35311101 8.35311101 8.35311101 8.35311101 8.35311101 8.35029447 8.34687294 8.34336879 8.33997355 8.33688714 8.33426661 8.33220223 8.33071622 8.32976800 8.32927088 8.32911359 8.32917938 8.32936101 8.32957061 8.32974396 8.32984037 8.32984037 8.32974396 8.32957061 8.32936101 8.32917938 8.32911359 8.32927088 8.32976800 8.33071622 8.33220223 8.33426661 8.33688714 8.33997355 8.34336879 8.34687294 8.35029447 8.35311101 8.35311101 8.35311101 8.35311101 8.35311101 8.35311101 8.35311101 8.35311101 8.35311101 8.34951751 8.34630430 8.34309953 8.34009081 8.33743709 8.33522920 8.33350964 8.33226410 8.33143545 8.33094294 8.33069604 8.33060701 8.33060183 8.33062630 8.33064656 8.33064656 8.33062630 8.33060183 8.33060701 8.33069604 8.33094294 8.33143545 8.33226410 8.33350964 8.33522920 8.33743709 8.34009081 8.34309953 8.34630430 8.34951751 8.35311101 8.35311101 8.35311101 8.35311101 8.35311101 8.35311101 8.35311101 8.35311101 8.35311101 8.35311101 8.35162725 8.34942601 8.34649863 8.34363256 8.34103541 8.33876539 8.33689155 8.33542045 8.33431996 8.33354110 8.33302010 8.33268782 8.33248409 8.33236740 8.33231431 8.33231431 8.33236740 8.33248409 8.33268782 8.33302010 8.33354110 8.33431996 8.33542045 8.33689155 8.33876539 8.34103541 8.34363256 8.34649863 8.34942601 8.35162725 8.35311101 8.35311101 8.35311101 8.35311101 8.35311101 8.35311101 8.35311101 8.35311101 8.35311101 8.35311101 8.35311101 8.35311101 8.35000795 8.34728397 8.34488583 8.34264729 8.34072792 8.33913535 8.33785273 8.33686955 8.33614707 8.33562780 8.33526076 8.33502104 8.33490212 8.33490212 8.33502104 8.33526076 8.33562780 8.33614707 8.33686955 8.33785273 8.33913535 8.34072792 8.34264729 8.34488583 8.34728397 8.35000795 8.35311101 8.35311101 8.35311101 8.35311101 8.35311101 8.35311101 8.35311101 8.35311101 8.35311101 8.35311101 8.35311101 8.35311101 8.35311101 8.35311101 8.35311101 8.35065472 8.34883380 8.34665256 8.34482034 8.34322339 8.34185400 8.34076994 8.33994792 8.33932153 8.33883348 8.33848784 8.33830990 8.33830990 8.33848784 8.33883348 8.33932153 8.33994792 8.34076994 8.34185400 8.34322339 8.34482034 8.34665256 8.34883380 8.35065472 8.35311101 8.35311101 8.35311101 8.35311101 8.35311101 8.35311101 8.35311101 8.35311101 8.35311101 8.35311101 8.35311101 8.35311101 8.35311101 8.35311101 8.35311101 8.35311101 8.35311101 8.35311101 8.35046325 8.34895569 8.34743043 8.34604021 8.34498190 8.34419796 8.34356720 8.34297768 8.34251857 8.34227991 8.34227991 8.34251857 8.34297768 8.34356720 8.34419796 8.34498190 8.34604021 8.34743043 8.34895569 8.35046325 8.35311101 8.35311101 8.35311101 8.35311101 8.35311101 8.35311101 8.35311101 8.35311101 8.35311101 8.35311101 8.35311101 8.35311101 8.35311101 8.35311101 8.35311101 8.35311101 8.35311101 8.35311101 8.35311101 8.35311101 8.35311101 8.35311101 8.35132732 8.34999276 8.34918362 8.34864415 8.34815717 8.34736222 8.34671988 8.34641110 8.34641110 8.34671988 8.34736222 8.34815717 8.34864415 8.34918362 8.34999276 8.35132732 8.35311101 8.35311101 8.35311101 8.35311101 8.35311101 8.35311101 8.35311101 8.35311101 8.35311101 8.35311101 8.35311101 8.35311101 8.35311101 8.35311101 8.35311101 8.35311101 8.35311101 8.35311101 8.35311101 8.35311101 8.35311101 8.35311101 8.35311101 8.35311101 8.35311101 8.35311101 8.35311101 8.35311101 8.35311101 8.35142042 8.35051222 8.35018072 8.35018072 8.35051222 8.35142042 8.35311101 8.35311101 8.35311101 8.35311101 8.35311101 8.35311101 8.35311101 8.35311101 8.35311101 8.35311101 8.35311101 8.35311101 8.35311101 8.35311101 8.35311101 8.35311101 8.35311101 8.35311101 8.35311101 8.35311101 8.35311101 8.35311101 8.35311101 8.35311101 8.35311101 8.35311101 8.35311101 8.35311101 8.35311101 8.35311101 8.35311101 8.35311101 8.35311101 8.35311101 8.35311101 8.35311101 8.35311101 8.35311101 8.35311101 8.35311101 8.35311101 8.35311101 8.35311101 8.35311101 8.35311101 8.35311101 8.35311101 8.35311101 8.35311101 8.35311101 8.35311101 8.35311101 8.35311101 8.35311101 8.35311101 8.35311101 8.35311101 8.35311101 8.35311101 8.35311101 8.35311101 8.35311101 8.35311101 8.35311101 8.35311101 8.35311101 8.35311101 8.35311101 8.35311101 8.35311101 8.35311101 8.35311101 8.35311101 8.35311101 8.35311101 8.35311101 8.35311101 8.35311101 8.35311101 8.35311101 8.35311101 8.35311101 8.35311101 8.35311101 8.35311101 8.35311101 8.35311101 8.35311101 8.35311101 8.35311101 8.35311101 8.35311101 8.35311101 8.35311101 8.35311101 8.35311101 8.35311101 8.35311101 8.35311101 8.35311101 8.35311101 8.35311101 8.35311101 8.35311101 8.35311101 8.35311101 8.35311101 8.35311101 8.35311101 8.35311101 8.35311101 8.35311101 8.35311101 8.35311101 8.35311101 8.35311101 8.35311101 8.35311101 8.35311101 8.35311101 8.35311101 8.35311101 8.35311101 8.35311101 8.35311101 8.35311101 8.35311101 8.35311101 8.35311101 8.35311101 8.35311101 8.35311101 8.35311101 8.35311101 8.35311101 8.35311101 8.35311101 8.35311101 8.35311101 8.35311101 8.35311101 8.35311101 8.35311101 8.35311101 8.35311101 8.35311101 8.35311101 8.35311101 8.35311101 8.35311101 8.35311101 8.35311101 8.35311101 8.35311101 8.35311101 8.35311101 8.35311101 8.35311101 8.35311101 8.35311101 8.35311101 8.35311101 8.35311101 8.35311101 8.35311101 8.35311101 8.35311101 8.35311101 8.35311101 8.35311101 8.35311101 8.35311101 8.35311101 8.35311101 8.35311101 8.35311101 8.35311101 8.35311101 8.35311101 8.35311101 8.35311101 8.35311101 8.35311101 8.35311101 8.35311101 8.35311101 8.35311101 8.35311101 8.35311101 8.35311101 8.35311101 8.35311101 8.35311101 8.35311101 8.35311101 8.35311101 8.35311101 8.35311101 8.35311101 8.35311101 8.35311101 8.35311101 8.35311101 8.35311101 8.35311101 8.35311101 8.35311101 8.35311101 8.35311101 8.35311101 8.35311101 8.35311101 8.35311101 8.35311101 8.35311101 8.35311101 8.35311101 8.35311101 8.35311101 8.35311101 8.35311101 8.35311101 8.35311101 8.35311101 8.35311101 8.35311101 8.35311101 8.35311101 8.35311101 8.35311101 8.35311101 8.35311101 8.35311101 8.35311101 8.35311101 8.35311101 8.35311101 8.35311101 8.35311101 8.35311101 8.35311101 8.35311101 8.35311101 8.35311101 8.35311101 8.35311101 8.35311101 8.35311101 8.35311101 8.35311101 8.35311101 8.35311101 8.35311101 8.35311101 8.35311101 8.35311101 8.35311101 8.35311101 8.35311101 8.35311101 8.35311101 8.35311101 8.35311101 8.35311101 8.35311101 8.35311101 8.35311101 8.35311101 8.35311101 8.35311101 8.35311101 8.35311101 8.35311101 8.35311101 8.35311101 8.35311101 8.35311101 8.35311101 8.35311101 8.35311101 8.35311101 8.35311101 8.35311101 8.35311101 8.35311101 8.35311101 8.35311101 8.35311101 8.35311101 8.35311101 8.35311101 8.35311101 8.35311101 8.35311101 8.35311101 8.35311101 8.35311101 8.35311101 8.35311101 8.35311101 8.35311101 8.35311101 8.35311101 8.35311101 8.35311101 8.35311101 8.35311101 8.35311101 8.35311101 8.35311101 8.35311101 8.35311101 8.35311101 8.35311101 8.35311101 8.35311101 8.35311101 8.35311101 8.35311101 8.35311101 8.35311101 8.35311101 8.35311101 8.35311101 8.35311101 8.35311101 8.35311101 8.35311101 8.35311101 8.35311101 8.35311101 8.35311101 8.35311101 8.35311101 8.35311101 8.35311101 8.35311101 