# vtk DataFile Version 3.0
VTK - Matlab export
ASCII
DATASET STRUCTURED_POINTS
DIMENSIONS 40 40 1
SPACING 1 1 1
ORIGIN 0 0 0
POINT_DATA 1600
SCALARS Temperature float 1
LOOKUP_TABLE default
200.00000000 200.00000000 200.00000000 200.00000000 200.00000000 200.00000000 200.00000000 200.00000000 200.00000000 200.00000000 200.00000000 200.00000000 200.00000000 200.00000000 200.00000000 200.00000000 200.00000000 200.00000000 200.00000000 200.00000000 200.00000000 200.00000000 200.00000000 200.00000000 200.00000000 200.00000000 200.00000000 200.00000000 200.00000000 200.00000000 200.00000000 200.00000000 200.00000000 200.00000000 200.00000000 200.00000000 200.00000000 200.00000000 200.00000000 200.00000000 200.00000000 200.00000000 200.00000000 200.00000000 200.00000000 200.00000000 200.00000000 200.00000000 200.00000000 200.00000000 200.00000000 200.00000000 200.00000000 200.00000000 200.00000000 200.00000000 200.00000000 200.00000000 200.00000000 200.00000000 200.00000000 200.00000000 200.00000000 200.00000000 200.00000000 200.00000000 200.00000000 200.00000000 200.00000000 200.00000000 200.00000000 200.00000000 200.00000000 200.00000000 200.00000000 200.00000000 200.00000000 200.00000000 200.00000000 200.00000000 200.00000000 200.00000000 200.00000000 200.00000000 200.00000000 200.00000000 200.00000000 200.00000000 200.00000000 200.00000000 200.00000000 200.00000000 200.00000000 200.00000000 200.00000000 200.00000000 200.00000000 200.00000000 200.00000000 200.00000000 200.00000000 200.00000000 200.00000000 200.00000000 200.00000000 200.00000000 200.00000000 200.00000000 200.00000000 200.00000000 200.00000000 200.00000000 200.00000000 200.00000000 200.00000000 200.00000000 200.00000000 200.00000000 200.00000000 200.00000000 200.00000000 200.00000000 200.00000000 200.00000000 200.00000000 200.00000000 200.00000000 200.00000000 200.00000000 200.00000000 200.00000000 200.00000000 200.00000000 200.00000000 200.00000000 200.00000000 200.00000000 200.00000000 200.00000000 200.00000000 200.00000000 200.00000000 200.00000000 200.00000000 200.00000000 200.00000000 200.00000000 200.00000000 200.00000000 200.00000000 200.00000000 200.00000000 200.00000000 200.00000000 200.00000000 200.00000000 200.00000000 200.00000000 200.00000000 200.00000000 200.00000000 200.00000000 200.00000000 200.00000000 200.00000000 200.00000000 200.00000000 200.00000000 200.00000000 200.00000000 200.00000000 200.00000000 200.00000000 200.00000000 200.00000000 200.00000000 200.00000000 200.00000000 200.00000000 200.00000000 200.00000000 200.00000000 200.00000000 200.00000000 200.00000000 200.00000000 200.00000000 200.00000000 200.00000000 200.00000000 200.00000000 200.00000000 200.00000000 200.00000000 200.00000000 200.00000000 200.00000000 200.00000000 200.00000000 200.00000000 200.00000000 200.00000000 200.00000000 200.00000000 200.00000000 200.00000000 200.00000000 200.00000000 200.00000000 200.00000000 200.00000000 200.00000000 200.00000000 200.00000000 200.00000000 200.00000000 200.00000000 200.00000000 200.00000000 200.00000000 200.00000000 200.00000000 200.00000000 200.00000000 200.00000000 200.00000000 200.00000000 200.00000000 200.00000000 200.00000000 200.00000000 200.00000000 200.00000000 200.00000000 200.00000000 200.00000000 200.00000000 200.00000000 200.00000000 200.00000000 200.00000000 200.00000000 200.00000000 200.00000000 200.00000000 200.00000000 200.00000000 200.00000000 200.00000000 200.00000000 200.00000000 200.00000000 200.00000000 200.00000000 200.00000000 200.00000000 200.00000000 200.00000000 200.00000000 200.00000000 200.00000000 200.00000000 200.00000000 200.00000000 200.00000000 200.00000000 200.00000000 200.00000000 200.00000000 200.00000000 200.00000000 200.00000000 200.00000000 200.00000000 200.00000000 200.00000000 200.00000000 200.00000000 200.00000000 200.00000000 200.00000000 200.00000000 200.00000000 200.00000000 200.00000000 200.00000000 200.00000000 200.00000000 200.00000000 200.00000000 200.00000000 200.00000000 200.00000000 200.00000000 200.00000000 200.00000000 200.00000000 200.00000000 200.00000000 200.00000000 200.00000000 200.00000000 200.00000000 200.00000000 200.00000000 200.00000000 200.00000000 200.00000000 200.00000000 200.00000000 200.00000000 200.00000000 200.00000000 200.00000000 200.00000000 200.00000000 200.00000000 200.00000000 200.00000000 200.00000000 200.00000000 200.00000000 200.00000000 200.00000000 200.00000000 200.00000000 200.00000000 200.00000000 200.00000000 200.00000000 200.00000000 200.00000000 200.00000000 200.00000000 200.00000000 200.00000000 200.00000000 331.53668473 415.93822285 446.69329600 446.69329600 415.93822285 331.53668473 200.00000000 200.00000000 200.00000000 200.00000000 200.00000000 200.00000000 200.00000000 200.00000000 200.00000000 200.00000000 200.00000000 200.00000000 200.00000000 200.00000000 200.00000000 200.00000000 200.00000000 200.00000000 200.00000000 200.00000000 200.00000000 200.00000000 200.00000000 200.00000000 200.00000000 200.00000000 200.00000000 200.00000000 200.00000000 333.74778902 431.62180026 472.30042576 485.32886584 499.94852721 552.37363903 598.08405440 615.92553456 615.92553456 598.08405440 552.37363903 499.94852721 485.32886584 472.30042576 431.62180026 333.74778902 200.00000000 200.00000000 200.00000000 200.00000000 200.00000000 200.00000000 200.00000000 200.00000000 200.00000000 200.00000000 200.00000000 200.00000000 200.00000000 200.00000000 200.00000000 200.00000000 200.00000000 200.00000000 200.00000000 200.00000000 200.00000000 200.00000000 390.41727571 475.78335915 550.10628525 606.38200878 629.44191781 635.70979576 641.33765332 656.21468251 669.17609486 673.85613883 673.85613883 669.17609486 656.21468251 641.33765332 635.70979576 629.44191781 606.38200878 550.10628525 475.78335915 390.41727571 200.00000000 200.00000000 200.00000000 200.00000000 200.00000000 200.00000000 200.00000000 200.00000000 200.00000000 200.00000000 200.00000000 200.00000000 200.00000000 200.00000000 200.00000000 200.00000000 200.00000000 200.00000000 378.39784134 476.88032265 578.41752984 627.86772191 654.72160335 671.11813323 676.91734686 678.14214177 679.16012191 681.87678849 684.07272848 684.74072517 684.74072517 684.07272848 681.87678849 679.16012191 678.14214177 676.91734686 671.11813323 654.72160335 627.86772191 578.41752984 476.88032265 378.39784134 200.00000000 200.00000000 200.00000000 200.00000000 200.00000000 200.00000000 200.00000000 200.00000000 200.00000000 200.00000000 200.00000000 200.00000000 200.00000000 200.00000000 200.00000000 407.52996242 553.56740573 623.81800450 661.67758537 675.99196483 681.57295504 684.32304726 685.10485033 685.21834135 685.32128502 685.64534743 685.87361842 685.92489007 685.92489007 685.87361842 685.64534743 685.32128502 685.21834135 685.10485033 684.32304726 681.57295504 675.99196483 661.67758537 623.81800450 553.56740573 407.52996242 200.00000000 200.00000000 200.00000000 200.00000000 200.00000000 200.00000000 200.00000000 200.00000000 200.00000000 200.00000000 200.00000000 200.00000000 318.47040564 449.96916751 577.99532562 648.62174803 673.94567747 682.59052823 684.94068466 685.61838051 685.89140883 685.94729025 685.95145146 685.95732979 685.98233997 685.99603170 685.99771483 685.99771483 685.99603170 685.98233997 685.95732979 685.95145146 685.94729025 685.89140883 685.61838051 684.94068466 682.59052823 673.94567747 648.62174803 577.99532562 449.96916751 318.47040564 200.00000000 200.00000000 200.00000000 200.00000000 200.00000000 200.00000000 200.00000000 200.00000000 200.00000000 200.00000000 449.96753631 590.16663669 656.01235287 678.98031465 684.52176704 685.71596085 685.93435940 685.98140324 685.99659372 685.99827393 685.99827393 685.99843345 685.99960174 685.99997354 685.99997354 685.99997354 685.99997354 685.99960174 685.99843345 685.99827393 685.99827393 685.99659372 685.98140324 685.93435940 685.71596085 684.52176704 678.98031465 656.01235287 590.16663669 449.96753631 200.00000000 200.00000000 200.00000000 200.00000000 200.00000000 200.00000000 200.00000000 200.00000000 200.00000000 407.33959995 577.95459095 656.00952523 679.91917196 685.12162227 685.89250511 685.98747568 685.99787440 685.99960174 685.99997354 685.99997354 685.99997354 685.99997354 686.00000000 686.00000000 686.00000000 686.00000000 686.00000000 686.00000000 685.99997354 685.99997354 685.99997354 685.99997354 685.99960174 685.99787440 685.98747568 685.89250511 685.12162227 679.91917196 656.00952523 577.95459095 407.33959995 200.00000000 200.00000000 200.00000000 200.00000000 200.00000000 200.00000000 200.00000000 374.35487899 551.75311649 648.27295451 678.94691540 685.12023622 685.93135177 685.99617066 685.99978788 685.99997354 686.00000000 686.00000000 686.00000000 686.00000000 686.00000000 686.00000000 686.00000000 686.00000000 686.00000000 686.00000000 686.00000000 686.00000000 686.00000000 686.00000000 686.00000000 686.00000000 685.99997354 685.99978788 685.99617066 685.93135177 685.12023622 678.94691540 648.27295451 551.75311649 374.35487899 200.00000000 200.00000000 200.00000000 200.00000000 200.00000000 200.00000000 454.45635705 615.27117968 672.40176216 684.36962104 685.88473614 685.99601108 685.99994708 686.00000000 686.00000000 686.00000000 686.00000000 686.00000000 686.00000000 686.00000000 686.00000000 686.00000000 686.00000000 686.00000000 686.00000000 686.00000000 686.00000000 686.00000000 686.00000000 686.00000000 686.00000000 686.00000000 686.00000000 685.99994708 685.99601108 685.88473614 684.36962104 672.40176216 615.27117968 454.45635705 200.00000000 200.00000000 200.00000000 200.00000000 200.00000000 200.00000000 490.57613041 637.06900344 678.37027993 685.25455055 685.95524394 685.99843345 685.99997354 686.00000000 686.00000000 686.00000000 686.00000000 686.00000000 686.00000000 686.00000000 686.00000000 686.00000000 686.00000000 686.00000000 686.00000000 686.00000000 686.00000000 686.00000000 686.00000000 686.00000000 686.00000000 686.00000000 686.00000000 685.99997354 685.99843345 685.95524394 685.25455055 678.37027993 637.06900344 490.57613041 200.00000000 200.00000000 200.00000000 200.00000000 200.00000000 305.55120965 533.28697371 650.88292467 681.13832434 685.59337262 685.98081393 685.99960174 686.00000000 686.00000000 686.00000000 686.00000000 686.00000000 686.00000000 686.00000000 686.00000000 686.00000000 686.00000000 686.00000000 686.00000000 686.00000000 686.00000000 686.00000000 686.00000000 686.00000000 686.00000000 686.00000000 686.00000000 686.00000000 686.00000000 685.99960174 685.98081393 685.59337262 681.13832434 650.88292467 533.28697371 305.55120965 200.00000000 200.00000000 200.00000000 200.00000000 305.55120965 533.28697371 650.88292467 681.13832434 685.59337262 685.98081393 685.99960174 686.00000000 686.00000000 686.00000000 686.00000000 686.00000000 686.00000000 686.00000000 686.00000000 686.00000000 686.00000000 686.00000000 686.00000000 686.00000000 686.00000000 686.00000000 686.00000000 686.00000000 686.00000000 686.00000000 686.00000000 686.00000000 686.00000000 685.99960174 685.98081393 685.59337262 681.13832434 650.88292467 533.28697371 305.55120965 200.00000000 200.00000000 200.00000000 200.00000000 200.00000000 490.57613041 637.06900344 678.37027993 685.25455055 685.95524394 685.99843345 685.99997354 686.00000000 686.00000000 686.00000000 686.00000000 686.00000000 686.00000000 686.00000000 686.00000000 686.00000000 686.00000000 686.00000000 686.00000000 686.00000000 686.00000000 686.00000000 686.00000000 686.00000000 686.00000000 686.00000000 686.00000000 685.99997354 685.99843345 685.95524394 685.25455055 678.37027993 637.06900344 490.57613041 200.00000000 200.00000000 200.00000000 200.00000000 200.00000000 200.00000000 454.45635705 615.27117968 672.40176216 684.36962104 685.88473614 685.99601108 685.99994708 686.00000000 686.00000000 686.00000000 686.00000000 686.00000000 686.00000000 686.00000000 686.00000000 686.00000000 686.00000000 686.00000000 686.00000000 686.00000000 686.00000000 686.00000000 686.00000000 686.00000000 686.00000000 686.00000000 686.00000000 685.99994708 685.99601108 685.88473614 684.36962104 672.40176216 615.27117968 454.45635705 200.00000000 200.00000000 200.00000000 200.00000000 200.00000000 200.00000000 374.35487899 551.75311649 648.27295451 678.94691540 685.12023622 685.93135177 685.99617066 685.99978788 685.99997354 686.00000000 686.00000000 686.00000000 686.00000000 686.00000000 686.00000000 686.00000000 686.00000000 686.00000000 686.00000000 686.00000000 686.00000000 686.00000000 686.00000000 686.00000000 686.00000000 685.99997354 685.99978788 685.99617066 685.93135177 685.12023622 678.94691540 648.27295451 551.75311649 374.35487899 200.00000000 200.00000000 200.00000000 200.00000000 200.00000000 200.00000000 200.00000000 407.33959995 577.95459095 656.00952523 679.91917196 685.12162227 685.89250511 685.98747568 685.99787440 685.99960174 685.99997354 685.99997354 685.99997354 685.99997354 686.00000000 686.00000000 686.00000000 686.00000000 686.00000000 686.00000000 685.99997354 685.99997354 685.99997354 685.99997354 685.99960174 685.99787440 685.98747568 685.89250511 685.12162227 679.91917196 656.00952523 577.95459095 407.33959995 200.00000000 200.00000000 200.00000000 200.00000000 200.00000000 200.00000000 200.00000000 200.00000000 200.00000000 449.96753631 590.16663669 656.01235287 678.98031465 684.52176704 685.71596085 685.93435940 685.98140324 685.99659372 685.99827393 685.99827393 685.99843345 685.99960174 685.99997354 685.99997354 685.99997354 685.99997354 685.99960174 685.99843345 685.99827393 685.99827393 685.99659372 685.98140324 685.93435940 685.71596085 684.52176704 678.98031465 656.01235287 590.16663669 449.96753631 200.00000000 200.00000000 200.00000000 200.00000000 200.00000000 200.00000000 200.00000000 200.00000000 200.00000000 200.00000000 318.47040564 449.96916751 577.99532562 648.62174803 673.94567747 682.59052823 684.94068466 685.61838051 685.89140883 685.94729025 685.95145146 685.95732979 685.98233997 685.99603170 685.99771483 685.99771483 685.99603170 685.98233997 685.95732979 685.95145146 685.94729025 685.89140883 685.61838051 684.94068466 682.59052823 673.94567747 648.62174803 577.99532562 449.96916751 318.47040564 200.00000000 200.00000000 200.00000000 200.00000000 200.00000000 200.00000000 200.00000000 200.00000000 200.00000000 200.00000000 200.00000000 200.00000000 407.52996242 553.56740573 623.81800450 661.67758537 675.99196483 681.57295504 684.32304726 685.10485033 685.21834135 685.32128502 685.64534743 685.87361842 685.92489007 685.92489007 685.87361842 685.64534743 685.32128502 685.21834135 685.10485033 684.32304726 681.57295504 675.99196483 661.67758537 623.81800450 553.56740573 407.52996242 200.00000000 200.00000000 200.00000000 200.00000000 200.00000000 200.00000000 200.00000000 200.00000000 200.00000000 200.00000000 200.00000000 200.00000000 200.00000000 200.00000000 200.00000000 378.39784134 476.88032265 578.41752984 627.86772191 654.72160335 671.11813323 676.91734686 678.14214177 679.16012191 681.87678849 684.07272848 684.74072517 684.74072517 684.07272848 681.87678849 679.16012191 678.14214177 676.91734686 671.11813323 654.72160335 627.86772191 578.41752984 476.88032265 378.39784134 200.00000000 200.00000000 200.00000000 200.00000000 200.00000000 200.00000000 200.00000000 200.00000000 200.00000000 200.00000000 200.00000000 200.00000000 200.00000000 200.00000000 200.00000000 200.00000000 200.00000000 200.00000000 390.41727571 475.78335915 550.10628525 606.38200878 629.44191781 635.70979576 641.33765332 656.21468251 669.17609486 673.85613883 673.85613883 669.17609486 656.21468251 641.33765332 635.70979576 629.44191781 606.38200878 550.10628525 475.78335915 390.41727571 200.00000000 200.00000000 200.00000000 200.00000000 200.00000000 200.00000000 200.00000000 200.00000000 200.00000000 200.00000000 200.00000000 200.00000000 200.00000000 200.00000000 200.00000000 200.00000000 200.00000000 200.00000000 200.00000000 200.00000000 200.00000000 200.00000000 333.74778902 431.62180026 472.30042576 485.32886584 499.94852721 552.37363903 598.08405440 615.92553456 615.92553456 598.08405440 552.37363903 499.94852721 485.32886584 472.30042576 431.62180026 333.74778902 200.00000000 200.00000000 200.00000000 200.00000000 200.00000000 200.00000000 200.00000000 200.00000000 200.00000000 200.00000000 200.00000000 200.00000000 200.00000000 200.00000000 200.00000000 200.00000000 200.00000000 200.00000000 200.00000000 200.00000000 200.00000000 200.00000000 200.00000000 200.00000000 200.00000000 200.00000000 200.00000000 200.00000000 200.00000000 331.53668473 415.93822285 446.69329600 446.69329600 415.93822285 331.53668473 200.00000000 200.00000000 200.00000000 200.00000000 200.00000000 200.00000000 200.00000000 200.00000000 200.00000000 200.00000000 200.00000000 200.00000000 200.00000000 200.00000000 200.00000000 200.00000000 200.00000000 200.00000000 200.00000000 200.00000000 200.00000000 200.00000000 200.00000000 200.00000000 200.00000000 200.00000000 200.00000000 200.00000000 200.00000000 200.00000000 200.00000000 200.00000000 200.00000000 200.00000000 200.00000000 200.00000000 200.00000000 200.00000000 200.00000000 200.00000000 200.00000000 200.00000000 200.00000000 200.00000000 200.00000000 200.00000000 200.00000000 200.00000000 200.00000000 200.00000000 200.00000000 200.00000000 200.00000000 200.00000000 200.00000000 200.00000000 200.00000000 200.00000000 200.00000000 200.00000000 200.00000000 200.00000000 200.00000000 200.00000000 200.00000000 200.00000000 200.00000000 200.00000000 200.00000000 200.00000000 200.00000000 200.00000000 200.00000000 200.00000000 200.00000000 200.00000000 200.00000000 200.00000000 200.00000000 200.00000000 200.00000000 200.00000000 200.00000000 200.00000000 200.00000000 200.00000000 200.00000000 200.00000000 200.00000000 200.00000000 200.00000000 200.00000000 200.00000000 200.00000000 200.00000000 200.00000000 200.00000000 200.00000000 200.00000000 200.00000000 200.00000000 200.00000000 200.00000000 200.00000000 200.00000000 200.00000000 200.00000000 200.00000000 200.00000000 200.00000000 200.00000000 200.00000000 200.00000000 200.00000000 200.00000000 200.00000000 200.00000000 200.00000000 200.00000000 200.00000000 200.00000000 200.00000000 200.00000000 200.00000000 200.00000000 200.00000000 200.00000000 200.00000000 200.00000000 200.00000000 200.00000000 200.00000000 200.00000000 200.00000000 200.00000000 200.00000000 200.00000000 200.00000000 200.00000000 200.00000000 200.00000000 200.00000000 200.00000000 200.00000000 200.00000000 200.00000000 200.00000000 200.00000000 200.00000000 200.00000000 200.00000000 200.00000000 200.00000000 200.00000000 200.00000000 200.00000000 200.00000000 200.00000000 200.00000000 200.00000000 200.00000000 200.00000000 200.00000000 200.00000000 200.00000000 200.00000000 200.00000000 200.00000000 200.00000000 200.00000000 200.00000000 200.00000000 200.00000000 200.00000000 200.00000000 200.00000000 200.00000000 200.00000000 200.00000000 200.00000000 200.00000000 200.00000000 200.00000000 200.00000000 200.00000000 200.00000000 200.00000000 200.00000000 200.00000000 200.00000000 200.00000000 200.00000000 200.00000000 200.00000000 200.00000000 200.00000000 200.00000000 200.00000000 200.00000000 200.00000000 200.00000000 200.00000000 200.00000000 200.00000000 200.00000000 200.00000000 200.00000000 200.00000000 200.00000000 200.00000000 200.00000000 200.00000000 200.00000000 200.00000000 200.00000000 200.00000000 200.00000000 200.00000000 200.00000000 200.00000000 200.00000000 200.00000000 200.00000000 200.00000000 200.00000000 200.00000000 200.00000000 200.00000000 200.00000000 200.00000000 200.00000000 200.00000000 200.00000000 200.00000000 200.00000000 200.00000000 200.00000000 200.00000000 200.00000000 200.00000000 200.00000000 200.00000000 200.00000000 200.00000000 200.00000000 200.00000000 200.00000000 200.00000000 200.00000000 200.00000000 200.00000000 200.00000000 200.00000000 200.00000000 200.00000000 200.00000000 200.00000000 200.00000000 200.00000000 200.00000000 200.00000000 200.00000000 200.00000000 200.00000000 200.00000000 200.00000000 200.00000000 200.00000000 200.00000000 200.00000000 200.00000000 200.00000000 200.00000000 200.00000000 200.00000000 200.00000000 200.00000000 200.00000000 200.00000000 200.00000000 200.00000000 200.00000000 200.00000000 200.00000000 200.00000000 200.00000000 200.00000000 200.00000000 200.00000000 200.00000000 200.00000000 200.00000000 200.00000000 200.00000000 200.00000000 200.00000000 200.00000000 200.00000000 200.00000000 200.00000000 200.00000000 200.00000000 200.00000000 200.00000000 200.00000000 200.00000000 200.00000000 200.00000000 200.00000000 200.00000000 200.00000000 200.00000000 200.00000000 200.00000000 200.00000000 200.00000000 200.00000000 200.00000000 200.00000000 200.00000000 200.00000000 200.00000000 200.00000000 200.00000000 200.00000000 200.00000000 200.00000000 200.00000000 200.00000000 200.00000000 200.00000000 200.00000000 200.00000000 200.00000000 200.00000000 200.00000000 200.00000000 