# vtk DataFile Version 3.0
VTK - Matlab export
ASCII
DATASET STRUCTURED_POINTS
DIMENSIONS 40 40 1
SPACING 1 1 1
ORIGIN 0 0 0
POINT_DATA 1600
SCALARS lambda-2 float 1
LOOKUP_TABLE default
8.35311101 8.35311101 8.35311101 8.35311101 8.35311101 8.35311101 8.35311101 8.35311101 8.35311101 8.35311101 8.35311101 8.35311101 8.35311101 8.35311101 8.35311101 8.35311101 8.35311101 8.35311101 8.35311101 8.35311101 8.35311101 8.35311101 8.35311101 8.35311101 8.35311101 8.35311101 8.35311101 8.35311101 8.35311101 8.35311101 8.35311101 8.35311101 8.35311101 8.35311101 8.35311101 8.35311101 8.35311101 8.35311101 8.35311101 8.35311101 8.35311101 8.35311101 8.35311101 8.35311101 8.35311101 8.35311101 8.35311101 8.35311101 8.35311101 8.35311101 8.35311101 8.35311101 8.35311101 8.35311101 8.35311101 8.35311101 8.35311101 8.35311101 8.35311101 8.35311101 8.35311101 8.35311101 8.35311101 8.35311101 8.35311101 8.35311101 8.35311101 8.35311101 8.35311101 8.35311101 8.35311101 8.35311101 8.35311101 8.35311101 8.35311101 8.35311101 8.35311101 8.35311101 8.35311101 8.35311101 8.35311101 8.35311101 8.35311101 8.35311101 8.35311101 8.35311101 8.35311101 8.35311101 8.35311101 8.35311101 8.35311101 8.35311101 8.35311101 8.35311101 8.35311101 8.35311101 8.35311101 8.35311101 8.35311101 8.35311101 8.35311101 8.35311101 8.35311101 8.35311101 8.35311101 8.35311101 8.35311101 8.35311101 8.35311101 8.35311101 8.35311101 8.35311101 8.35311101 8.35311101 8.35311101 8.35311101 8.35311101 8.35311101 8.35311101 8.35311101 8.35311101 8.35311101 8.35311101 8.35311101 8.35311101 8.35311101 8.35311101 8.35311101 8.35311101 8.35311101 8.35311101 8.35311101 8.35311101 8.35311101 8.35311101 8.35311101 8.35311101 8.35311101 8.35311101 8.35311101 8.35311101 8.35311101 8.35311101 8.35311101 8.35311101 8.35311101 8.35311101 8.35311101 8.35311101 8.35311101 8.35311101 8.35311101 8.35311101 8.35311101 8.35311101 8.35311101 8.35311101 8.35311101 8.35311101 8.35311101 8.35311101 8.35311101 8.35311101 8.35311101 8.35311101 8.35311101 8.35311101 8.35311101 8.35311101 8.35311101 8.35311101 8.35311101 8.35311101 8.35311101 8.35311101 8.35311101 8.35311101 8.35311101 8.35311101 8.35311101 8.35311101 8.35311101 8.35311101 8.35311101 8.35311101 8.35311101 8.35311101 8.35311101 8.35311101 8.35311101 8.35311101 8.35311101 8.35311101 8.35311101 8.35311101 8.35311101 8.35311101 8.35311101 8.35311101 8.35311101 8.35311101 8.35311101 8.35311101 8.35311101 8.35311101 8.35311101 8.35311101 8.35311101 8.35311101 8.35311101 8.35311101 8.35311101 8.35311101 8.35311101 8.35311101 8.35311101 8.35311101 8.35311101 8.35311101 8.35311101 8.35311101 8.35311101 8.35311101 8.35311101 8.35311101 8.35311101 8.35311101 8.35311101 8.35311101 8.35311101 8.35311101 8.35311101 8.35311101 8.35311101 8.35311101 8.35311101 8.35311101 8.35311101 8.35311101 8.35311101 8.35311101 8.35311101 8.35311101 8.35311101 8.35311101 8.35311101 8.35311101 8.35311101 8.35311101 8.35311101 8.35311101 8.35311101 8.35311101 8.35311101 8.35311101 8.35311101 8.35311101 8.35311101 8.35311101 8.35311101 8.35311101 8.35311101 8.35311101 8.35311101 8.35311101 8.35311101 8.35311101 8.35311101 8.35311101 8.35311101 8.35311101 8.35311101 8.35311101 8.35311101 8.35311101 8.35311101 8.35311101 8.35311101 8.35311101 8.35311101 8.35311101 8.35311101 8.35311101 8.35311101 8.35311101 8.35311101 8.35311101 8.35311101 8.35311101 8.35311101 8.35311101 8.35311101 8.35311101 8.35311101 8.35311101 8.35311101 8.35311101 8.35311101 8.35311101 8.35311101 8.35311101 8.35311101 8.35311101 8.35311101 8.35311101 8.35311101 8.35311101 8.35311101 8.35311101 8.35311101 8.35311101 8.35311101 8.35311101 8.35311101 8.35311101 8.35311101 8.35311101 8.35311101 8.35311101 8.35311101 8.35311101 8.35311101 8.35311101 8.35311101 8.35311101 8.35311101 8.35311101 8.35311101 8.35311101 8.35311101 8.35311101 8.35311101 8.35311101 8.35311101 8.35311101 8.35311101 8.35311101 8.34953648 8.34757308 8.34684501 8.34684501 8.34757308 8.34953648 8.35311101 8.35311101 8.35311101 8.35311101 8.35311101 8.35311101 8.35311101 8.35311101 8.35311101 8.35311101 8.35311101 8.35311101 8.35311101 8.35311101 8.35311101 8.35311101 8.35311101 8.35311101 8.35311101 8.35311101 8.35311101 8.35311101 8.35311101 8.35311101 8.35311101 8.35311101 8.35311101 8.35311101 8.35311101 8.34933633 8.34652280 8.34486614 8.34381037 8.34285839 8.34120620 8.33983857 8.33917418 8.33917418 8.33983857 8.34120620 8.34285839 8.34381037 8.34486614 8.34652280 8.34933633 8.35311101 8.35311101 8.35311101 8.35311101 8.35311101 8.35311101 8.35311101 8.35311101 8.35311101 8.35311101 8.35311101 8.35311101 8.35311101 8.35311101 8.35311101 8.35311101 8.35311101 8.35311101 8.35311101 8.35311101 8.35311101 8.35311101 8.34749859 8.34438233 8.34129320 8.33854443 8.33655497 8.33517110 8.33408468 8.33301479 8.33214594 8.33168674 8.33168674 8.33214594 8.33301479 8.33408468 8.33517110 8.33655497 8.33854443 8.34129320 8.34438233 8.34749859 8.35311101 8.35311101 8.35311101 8.35311101 8.35311101 8.35311101 8.35311101 8.35311101 8.35311101 8.35311101 8.35311101 8.35311101 8.35311101 8.35311101 8.35311101 8.35311101 8.35311101 8.35311101 8.34784702 8.34407846 8.33967432 8.33617699 8.33330771 8.33099701 8.32932183 8.32817805 8.32736735 8.32672593 8.32624905 8.32599633 8.32599633 8.32624905 8.32672593 8.32736735 8.32817805 8.32932183 8.33099701 8.33330771 8.33617699 8.33967432 8.34407846 8.34784702 8.35311101 8.35311101 8.35311101 8.35311101 8.35311101 8.35311101 8.35311101 8.35311101 8.35311101 8.35311101 8.35311101 8.35311101 8.35311101 8.35311101 8.35311101 8.34641567 8.34077071 8.33613120 8.33211762 8.32902086 8.32676353 8.32520556 8.32423569 8.32369916 8.32341974 8.32325812 8.32315407 8.32310043 8.32310043 8.32315407 8.32325812 8.32341974 8.32369916 8.32423569 8.32520556 8.32676353 8.32902086 8.33211762 8.33613120 8.34077071 8.34641567 8.35311101 8.35311101 8.35311101 8.35311101 8.35311101 8.35311101 8.35311101 8.35311101 8.35311101 8.35311101 8.35311101 8.35311101 8.34976827 8.34499375 8.33894979 8.33349698 8.32911006 8.32582641 8.32364526 8.32240622 8.32188185 8.32185119 8.32210777 8.32247301 8.32281698 8.32306790 8.32319739 8.32319739 8.32306790 8.32281698 8.32247301 8.32210777 8.32185119 8.32188185 8.32240622 8.32364526 8.32582641 8.32911006 8.33349698 8.33894979 8.34499375 8.34976827 8.35311101 8.35311101 8.35311101 8.35311101 8.35311101 8.35311101 8.35311101 8.35311101 8.35311101 8.35311101 8.34500044 8.33819476 8.33205343 8.32706384 8.32349819 8.32134781 8.32043449 8.32046365 8.32110942 8.32208037 8.32314327 8.32412778 8.32492407 8.32547346 8.32575172 8.32575172 8.32547346 8.32492407 8.32412778 8.32314327 8.32208037 8.32110942 8.32046365 8.32043449 8.32134781 8.32349819 8.32706384 8.33205343 8.33819476 8.34500044 8.35311101 8.35311101 8.35311101 8.35311101 8.35311101 8.35311101 8.35311101 8.35311101 8.35311101 8.34655195 8.33900103 8.33198848 8.32616082 8.32197382 8.31957176 8.31879772 8.31929872 8.32064129 8.32241354 8.32428671 8.32603134 8.32750633 8.32863767 8.32939571 8.32977418 8.32977418 8.32939571 8.32863767 8.32750633 8.32603134 8.32428671 8.32241354 8.32064129 8.31929872 8.31879772 8.31957176 8.32197382 8.32616082 8.33198848 8.33900103 8.34655195 8.35311101 8.35311101 8.35311101 8.35311101 8.35311101 8.35311101 8.35311101 8.34835351 8.34132175 8.33368749 8.32681157 8.32156022 8.31837090 8.31725598 8.31788464 8.31973473 8.32225132 8.32496272 8.32753352 8.32976350 8.33155713 8.33288615 8.33375690 8.33418623 8.33418623 8.33375690 8.33288615 8.33155713 8.32976350 8.32753352 8.32496272 8.32225132 8.31973473 8.31788464 8.31725598 8.31837090 8.32156022 8.32681157 8.33368749 8.34132175 8.34835351 8.35311101 8.35311101 8.35311101 8.35311101 8.35311101 8.35311101 8.34564573 8.33753773 8.32960861 8.32293286 8.31831843 8.31611438 8.31618775 8.31804056 8.32100570 8.32443655 8.32782961 8.33086459 8.33338318 8.33534003 8.33675231 8.33766064 8.33810361 8.33810361 8.33766064 8.33675231 8.33534003 8.33338318 8.33086459 8.32782961 8.32443655 8.32100570 8.31804056 8.31618775 8.31611438 8.31831843 8.32293286 8.32960861 8.33753773 8.34564573 8.35311101 8.35311101 8.35311101 8.35311101 8.35311101 8.35311101 8.34391007 8.33502717 8.32688079 8.32040044 8.31631963 8.31489482 8.31586891 8.31861334 8.32235648 8.32639337 8.33020903 8.33350560 8.33616398 8.33818060 8.33960828 8.34051359 8.34095128 8.34095128 8.34051359 8.33960828 8.33818060 8.33616398 8.33350560 8.33020903 8.32639337 8.32235648 8.31861334 8.31586891 8.31489482 8.31631963 8.32040044 8.32688079 8.33502717 8.34391007 8.35311101 8.35311101 8.35311101 8.35311101 8.35311101 8.35034648 8.34249139 8.33366061 8.32549931 8.31915749 8.31538256 8.31438647 8.31584345 8.31905414 8.32319275 8.32752675 8.33153922 8.33494780 8.33765670 8.33968581 8.34110732 8.34200158 8.34243178 8.34243178 8.34200158 8.34110732 8.33968581 8.33765670 8.33494780 8.33153922 8.32752675 8.32319275 8.31905414 8.31584345 8.31438647 8.31538256 8.31915749 8.32549931 8.33366061 8.34249139 8.35034648 8.35311101 8.35311101 8.35311101 8.35311101 8.35034648 8.34249139 8.33366061 8.32549931 8.31915749 8.31538256 8.31438647 8.31584345 8.31905414 8.32319275 8.32752675 8.33153922 8.33494780 8.33765670 8.33968581 8.34110732 8.34200158 8.34243178 8.34243178 8.34200158 8.34110732 8.33968581 8.33765670 8.33494780 8.33153922 8.32752675 8.32319275 8.31905414 8.31584345 8.31438647 8.31538256 8.31915749 8.32549931 8.33366061 8.34249139 8.35034648 8.35311101 8.35311101 8.35311101 8.35311101 8.35311101 8.34391007 8.33502717 8.32688079 8.32040044 8.31631963 8.31489482 8.31586891 8.31861334 8.32235648 8.32639337 8.33020903 8.33350560 8.33616398 8.33818060 8.33960828 8.34051359 8.34095128 8.34095128 8.34051359 8.33960828 8.33818060 8.33616398 8.33350560 8.33020903 8.32639337 8.32235648 8.31861334 8.31586891 8.31489482 8.31631963 8.32040044 8.32688079 8.33502717 8.34391007 8.35311101 8.35311101 8.35311101 8.35311101 8.35311101 8.35311101 8.34564573 8.33753773 8.32960861 8.32293286 8.31831843 8.31611438 8.31618775 8.31804056 8.32100570 8.32443655 8.32782961 8.33086459 8.33338318 8.33534003 8.33675231 8.33766064 8.33810361 8.33810361 8.33766064 8.33675231 8.33534003 8.33338318 8.33086459 8.32782961 8.32443655 8.32100570 8.31804056 8.31618775 8.31611438 8.31831843 8.32293286 8.32960861 8.33753773 8.34564573 8.35311101 8.35311101 8.35311101 8.35311101 8.35311101 8.35311101 8.34835351 8.34132175 8.33368749 8.32681157 8.32156022 8.31837090 8.31725598 8.31788464 8.31973473 8.32225132 8.32496272 8.32753352 8.32976350 8.33155713 8.33288615 8.33375690 8.33418623 8.33418623 8.33375690 8.33288615 8.33155713 8.32976350 8.32753352 8.32496272 8.32225132 8.31973473 8.31788464 8.31725598 8.31837090 8.32156022 8.32681157 8.33368749 8.34132175 8.34835351 8.35311101 8.35311101 8.35311101 8.35311101 8.35311101 8.35311101 8.35311101 8.34655195 8.33900103 8.33198848 8.32616082 8.32197382 8.31957176 8.31879772 8.31929872 8.32064129 8.32241354 8.32428671 8.32603134 8.32750633 8.32863767 8.32939571 8.32977418 8.32977418 8.32939571 8.32863767 8.32750633 8.32603134 8.32428671 8.32241354 8.32064129 8.31929872 8.31879772 8.31957176 8.32197382 8.32616082 8.33198848 8.33900103 8.34655195 8.35311101 8.35311101 8.35311101 8.35311101 8.35311101 8.35311101 8.35311101 8.35311101 8.35311101 8.34500044 8.33819476 8.33205343 8.32706384 8.32349819 8.32134781 8.32043449 8.32046365 8.32110942 8.32208037 8.32314327 8.32412778 8.32492407 8.32547346 8.32575172 8.32575172 8.32547346 8.32492407 8.32412778 8.32314327 8.32208037 8.32110942 8.32046365 8.32043449 8.32134781 8.32349819 8.32706384 8.33205343 8.33819476 8.34500044 8.35311101 8.35311101 8.35311101 8.35311101 8.35311101 8.35311101 8.35311101 8.35311101 8.35311101 8.35311101 8.34976827 8.34499375 8.33894979 8.33349698 8.32911006 8.32582641 8.32364526 8.32240622 8.32188185 8.32185119 8.32210777 8.32247301 8.32281698 8.32306790 8.32319739 8.32319739 8.32306790 8.32281698 8.32247301 8.32210777 8.32185119 8.32188185 8.32240622 8.32364526 8.32582641 8.32911006 8.33349698 8.33894979 8.34499375 8.34976827 8.35311101 8.35311101 8.35311101 8.35311101 8.35311101 8.35311101 8.35311101 8.35311101 8.35311101 8.35311101 8.35311101 8.35311101 8.34641567 8.34077071 8.33613120 8.33211762 8.32902086 8.32676353 8.32520556 8.32423569 8.32369916 8.32341974 8.32325812 8.32315407 8.32310043 8.32310043 8.32315407 8.32325812 8.32341974 8.32369916 8.32423569 8.32520556 8.32676353 8.32902086 8.33211762 8.33613120 8.34077071 8.34641567 8.35311101 8.35311101 8.35311101 8.35311101 8.35311101 8.35311101 8.35311101 8.35311101 8.35311101 8.35311101 8.35311101 8.35311101 8.35311101 8.35311101 8.35311101 8.34784702 8.34407846 8.33967432 8.33617699 8.33330771 8.33099701 8.32932183 8.32817805 8.32736735 8.32672593 8.32624905 8.32599633 8.32599633 8.32624905 8.32672593 8.32736735 8.32817805 8.32932183 8.33099701 8.33330771 8.33617699 8.33967432 8.34407846 8.34784702 8.35311101 8.35311101 8.35311101 8.35311101 8.35311101 8.35311101 8.35311101 8.35311101 8.35311101 8.35311101 8.35311101 8.35311101 8.35311101 8.35311101 8.35311101 8.35311101 8.35311101 8.35311101 8.34749859 8.34438233 8.34129320 8.33854443 8.33655497 8.33517110 8.33408468 8.33301479 8.33214594 8.33168674 8.33168674 8.33214594 8.33301479 8.33408468 8.33517110 8.33655497 8.33854443 8.34129320 8.34438233 8.34749859 8.35311101 8.35311101 8.35311101 8.35311101 8.35311101 8.35311101 8.35311101 8.35311101 8.35311101 8.35311101 8.35311101 8.35311101 8.35311101 8.35311101 8.35311101 8.35311101 8.35311101 8.35311101 8.35311101 8.35311101 8.35311101 8.35311101 8.34933633 8.34652280 8.34486614 8.34381037 8.34285839 8.34120620 8.33983857 8.33917418 8.33917418 8.33983857 8.34120620 8.34285839 8.34381037 8.34486614 8.34652280 8.34933633 8.35311101 8.35311101 8.35311101 8.35311101 8.35311101 8.35311101 8.35311101 8.35311101 8.35311101 8.35311101 8.35311101 8.35311101 8.35311101 8.35311101 8.35311101 8.35311101 8.35311101 8.35311101 8.35311101 8.35311101 8.35311101 8.35311101 8.35311101 8.35311101 8.35311101 8.35311101 8.35311101 8.35311101 8.35311101 8.34953648 8.34757308 8.34684501 8.34684501 8.34757308 8.34953648 8.35311101 8.35311101 8.35311101 8.35311101 8.35311101 8.35311101 8.35311101 8.35311101 8.35311101 8.35311101 8.35311101 8.35311101 8.35311101 8.35311101 8.35311101 8.35311101 8.35311101 8.35311101 8.35311101 8.35311101 8.35311101 8.35311101 8.35311101 8.35311101 8.35311101 8.35311101 8.35311101 8.35311101 8.35311101 8.35311101 8.35311101 8.35311101 8.35311101 8.35311101 8.35311101 8.35311101 8.35311101 8.35311101 8.35311101 8.35311101 8.35311101 8.35311101 8.35311101 8.35311101 8.35311101 8.35311101 8.35311101 8.35311101 8.35311101 8.35311101 8.35311101 8.35311101 8.35311101 8.35311101 8.35311101 8.35311101 8.35311101 8.35311101 8.35311101 8.35311101 8.35311101 8.35311101 8.35311101 8.35311101 8.35311101 8.35311101 8.35311101 8.35311101 8.35311101 8.35311101 8.35311101 8.35311101 8.35311101 8.35311101 8.35311101 8.35311101 8.35311101 8.35311101 8.35311101 8.35311101 8.35311101 8.35311101 8.35311101 8.35311101 8.35311101 8.35311101 8.35311101 8.35311101 8.35311101 8.35311101 8.35311101 8.35311101 8.35311101 8.35311101 8.35311101 8.35311101 8.35311101 8.35311101 8.35311101 8.35311101 8.35311101 8.35311101 8.35311101 8.35311101 8.35311101 8.35311101 8.35311101 8.35311101 8.35311101 8.35311101 8.35311101 8.35311101 8.35311101 8.35311101 8.35311101 8.35311101 8.35311101 8.35311101 8.35311101 8.35311101 8.35311101 8.35311101 8.35311101 8.35311101 8.35311101 8.35311101 8.35311101 8.35311101 8.35311101 8.35311101 8.35311101 8.35311101 8.35311101 8.35311101 8.35311101 8.35311101 8.35311101 8.35311101 8.35311101 8.35311101 8.35311101 8.35311101 8.35311101 8.35311101 8.35311101 8.35311101 8.35311101 8.35311101 8.35311101 8.35311101 8.35311101 8.35311101 8.35311101 8.35311101 8.35311101 8.35311101 8.35311101 8.35311101 8.35311101 8.35311101 8.35311101 8.35311101 8.35311101 8.35311101 8.35311101 8.35311101 8.35311101 8.35311101 8.35311101 8.35311101 8.35311101 8.35311101 8.35311101 8.35311101 8.35311101 8.35311101 8.35311101 8.35311101 8.35311101 8.35311101 8.35311101 8.35311101 8.35311101 8.35311101 8.35311101 8.35311101 8.35311101 8.35311101 8.35311101 8.35311101 8.35311101 8.35311101 8.35311101 8.35311101 8.35311101 8.35311101 8.35311101 8.35311101 8.35311101 8.35311101 8.35311101 8.35311101 8.35311101 8.35311101 8.35311101 8.35311101 8.35311101 8.35311101 8.35311101 8.35311101 8.35311101 8.35311101 8.35311101 8.35311101 8.35311101 8.35311101 8.35311101 8.35311101 8.35311101 8.35311101 8.35311101 8.35311101 8.35311101 8.35311101 8.35311101 8.35311101 8.35311101 8.35311101 8.35311101 8.35311101 8.35311101 8.35311101 8.35311101 8.35311101 8.35311101 8.35311101 8.35311101 8.35311101 8.35311101 8.35311101 8.35311101 8.35311101 8.35311101 8.35311101 8.35311101 8.35311101 8.35311101 8.35311101 8.35311101 8.35311101 8.35311101 8.35311101 8.35311101 8.35311101 8.35311101 8.35311101 8.35311101 8.35311101 8.35311101 8.35311101 8.35311101 8.35311101 8.35311101 8.35311101 8.35311101 8.35311101 8.35311101 8.35311101 8.35311101 8.35311101 8.35311101 8.35311101 8.35311101 8.35311101 8.35311101 8.35311101 8.35311101 8.35311101 8.35311101 8.35311101 8.35311101 8.35311101 8.35311101 8.35311101 8.35311101 8.35311101 8.35311101 8.35311101 8.35311101 8.35311101 8.35311101 8.35311101 8.35311101 8.35311101 8.35311101 8.35311101 8.35311101 8.35311101 8.35311101 8.35311101 8.35311101 8.35311101 8.35311101 8.35311101 8.35311101 8.35311101 8.35311101 8.35311101 8.35311101 8.35311101 8.35311101 8.35311101 8.35311101 8.35311101 8.35311101 8.35311101 8.35311101 8.35311101 8.35311101 8.35311101 8.35311101 8.35311101 8.35311101 8.35311101 8.35311101 8.35311101 8.35311101 8.35311101 8.35311101 8.35311101 8.35311101 8.35311101 8.35311101 8.35311101 8.35311101 8.35311101 8.35311101 