# vtk DataFile Version 3.0
VTK - Matlab export
ASCII
DATASET STRUCTURED_POINTS
DIMENSIONS 40 40 1
SPACING 1 1 1
ORIGIN 0 0 0
POINT_DATA 1600
SCALARS lambda-2 float 1
LOOKUP_TABLE default
8.35311101 8.35311101 8.35311101 8.35311101 8.35311101 8.35311101 8.35311101 8.35311101 8.35311101 8.35311101 8.35311101 8.35311101 8.35311101 8.35311101 8.35311101 8.35311101 8.35311101 8.35311101 8.35311101 8.35311101 8.35311101 8.35311101 8.35311101 8.35311101 8.35311101 8.35311101 8.35311101 8.35311101 8.35311101 8.35311101 8.35311101 8.35311101 8.35311101 8.35311101 8.35311101 8.35311101 8.35311101 8.35311101 8.35311101 8.35311101 8.35311101 8.35311101 8.35311101 8.35311101 8.35311101 8.35311101 8.35311101 8.35311101 8.35311101 8.35311101 8.35311101 8.35311101 8.35311101 8.35311101 8.35311101 8.35311101 8.35311101 8.35311101 8.35311101 8.35311101 8.35311101 8.35311101 8.35311101 8.35311101 8.35311101 8.35311101 8.35311101 8.35311101 8.35311101 8.35311101 8.35311101 8.35311101 8.35311101 8.35311101 8.35311101 8.35311101 8.35311101 8.35311101 8.35311101 8.35311101 8.35311101 8.35311101 8.35311101 8.35311101 8.35311101 8.35311101 8.35311101 8.35311101 8.35311101 8.35311101 8.35311101 8.35311101 8.35311101 8.35311101 8.35311101 8.35311101 8.35311101 8.35311101 8.35311101 8.35311101 8.35311101 8.35311101 8.35311101 8.35311101 8.35311101 8.35311101 8.35311101 8.35311101 8.35311101 8.35311101 8.35311101 8.35311101 8.35311101 8.35311101 8.35311101 8.35311101 8.35311101 8.35311101 8.35311101 8.35311101 8.35311101 8.35311101 8.35311101 8.35311101 8.35311101 8.35311101 8.35311101 8.35311101 8.35311101 8.35311101 8.35311101 8.35311101 8.35311101 8.35311101 8.35311101 8.35311101 8.35311101 8.35311101 8.35311101 8.35311101 8.35311101 8.35311101 8.35311101 8.35311101 8.35311101 8.35311101 8.35311101 8.35311101 8.35311101 8.35311101 8.35311101 8.35311101 8.35311101 8.35311101 8.35311101 8.35311101 8.35311101 8.35311101 8.35311101 8.35311101 8.35311101 8.35311101 8.35311101 8.35311101 8.35311101 8.35311101 8.35311101 8.35311101 8.35311101 8.35311101 8.35311101 8.35311101 8.35311101 8.35311101 8.35311101 8.35311101 8.35311101 8.35311101 8.35311101 8.35311101 8.35311101 8.35311101 8.35311101 8.35311101 8.35311101 8.35311101 8.35311101 8.35311101 8.35311101 8.35311101 8.35311101 8.35311101 8.35311101 8.35311101 8.35311101 8.35311101 8.35311101 8.35311101 8.35311101 8.35311101 8.35311101 8.35311101 8.35311101 8.35311101 8.35311101 8.35311101 8.35311101 8.35311101 8.35311101 8.35311101 8.35311101 8.35311101 8.35311101 8.35311101 8.35311101 8.35311101 8.35311101 8.35311101 8.35311101 8.35311101 8.35311101 8.35311101 8.35311101 8.35311101 8.35311101 8.35311101 8.35311101 8.35311101 8.35311101 8.35311101 8.35311101 8.35311101 8.35311101 8.35311101 8.35311101 8.35311101 8.35311101 8.35311101 8.35311101 8.35311101 8.35311101 8.35311101 8.35311101 8.35311101 8.35311101 8.35311101 8.35311101 8.35311101 8.35311101 8.35311101 8.35311101 8.35311101 8.35311101 8.35311101 8.35311101 8.35311101 8.35311101 8.35311101 8.35311101 8.35311101 8.35311101 8.35311101 8.35311101 8.35311101 8.35311101 8.35311101 8.35311101 8.35311101 8.35311101 8.35311101 8.35311101 8.35311101 8.35311101 8.35311101 8.35311101 8.35311101 8.35311101 8.35311101 8.35311101 8.35311101 8.35311101 8.35311101 8.35311101 8.35311101 8.35311101 8.35311101 8.35311101 8.35311101 8.35311101 8.35311101 8.35311101 8.35311101 8.35311101 8.35311101 8.35311101 8.35311101 8.35311101 8.35311101 8.35311101 8.35311101 8.35311101 8.35311101 8.35311101 8.35311101 8.35311101 8.35311101 8.35311101 8.35311101 8.35311101 8.35311101 8.35311101 8.35311101 8.35311101 8.35311101 8.35311101 8.35311101 8.35311101 8.35311101 8.35311101 8.35311101 8.35311101 8.35311101 8.35311101 8.35311101 8.35311101 8.35311101 8.35311101 8.35311101 8.35311101 8.35311101 8.35311101 8.35311101 8.35311101 8.35311101 8.35311101 8.35311101 8.35311101 8.35119393 8.35016092 8.34978310 8.34978310 8.35016092 8.35119393 8.35311101 8.35311101 8.35311101 8.35311101 8.35311101 8.35311101 8.35311101 8.35311101 8.35311101 8.35311101 8.35311101 8.35311101 8.35311101 8.35311101 8.35311101 8.35311101 8.35311101 8.35311101 8.35311101 8.35311101 8.35311101 8.35311101 8.35311101 8.35311101 8.35311101 8.35311101 8.35311101 8.35311101 8.35311101 8.35108611 8.34957314 8.34866010 8.34805519 8.34750917 8.34661013 8.34588132 8.34553053 8.34553053 8.34588132 8.34661013 8.34750917 8.34805519 8.34866010 8.34957314 8.35108611 8.35311101 8.35311101 8.35311101 8.35311101 8.35311101 8.35311101 8.35311101 8.35311101 8.35311101 8.35311101 8.35311101 8.35311101 8.35311101 8.35311101 8.35311101 8.35311101 8.35311101 8.35311101 8.35311101 8.35311101 8.35311101 8.35311101 8.35009922 8.34839348 8.34667466 8.34511429 8.34393500 8.34306856 8.34237347 8.34171947 8.34120745 8.34094075 8.34094075 8.34120745 8.34171947 8.34237347 8.34306856 8.34393500 8.34511429 8.34667466 8.34839348 8.35009922 8.35311101 8.35311101 8.35311101 8.35311101 8.35311101 8.35311101 8.35311101 8.35311101 8.35311101 8.35311101 8.35311101 8.35311101 8.35311101 8.35311101 8.35311101 8.35311101 8.35311101 8.35311101 8.35030518 8.34823941 8.34577748 8.34372887 8.34196029 8.34045757 8.33928151 8.33840055 8.33773447 8.33721481 8.33684504 8.33665415 8.33665415 8.33684504 8.33721481 8.33773447 8.33840055 8.33928151 8.34045757 8.34196029 8.34372887 8.34577748 8.34823941 8.35030518 8.35311101 8.35311101 8.35311101 8.35311101 8.35311101 8.35311101 8.35311101 8.35311101 8.35311101 8.35311101 8.35311101 8.35311101 8.35311101 8.35311101 8.35311101 8.34955625 8.34645876 8.34376263 8.34127654 8.33917810 8.33746766 8.33611616 8.33510254 8.33437517 8.33386309 8.33350510 8.33327182 8.33315605 8.33315605 8.33327182 8.33350510 8.33386309 8.33437517 8.33510254 8.33611616 8.33746766 8.33917810 8.34127654 8.34376263 8.34645876 8.34955625 8.35311101 8.35311101 8.35311101 8.35311101 8.35311101 8.35311101 8.35311101 8.35311101 8.35311101 8.35311101 8.35311101 8.35311101 8.35139684 8.34886941 8.34553500 8.34231084 8.33943920 8.33698211 8.33500758 8.33350825 8.33243191 8.33170950 8.33125875 8.33099530 8.33084847 8.33077123 8.33073811 8.33073811 8.33077123 8.33084847 8.33099530 8.33125875 8.33170950 8.33243191 8.33350825 8.33500758 8.33698211 8.33943920 8.34231084 8.34553500 8.34886941 8.35139684 8.35311101 8.35311101 8.35311101 8.35311101 8.35311101 8.35311101 8.35311101 8.35311101 8.35311101 8.35311101 8.34895507 8.34527380 8.34165404 8.33832125 8.33545778 8.33315680 8.33144786 8.33029176 8.32960146 8.32926770 8.32917661 8.32922373 8.32932495 8.32942136 8.32947766 8.32947766 8.32942136 8.32932495 8.32922373 8.32917661 8.32926770 8.32960146 8.33029176 8.33144786 8.33315680 8.33545778 8.33832125 8.34165404 8.34527380 8.34895507 8.35311101 8.35311101 8.35311101 8.35311101 8.35311101 8.35311101 8.35311101 8.35311101 8.35311101 8.34983578 8.34588771 8.34189742 8.33810645 8.33475419 8.33201596 8.32997633 8.32863222 8.32790556 8.32766917 8.32777587 8.32808204 8.32846356 8.32882432 8.32909777 8.32924375 8.32924375 8.32909777 8.32882432 8.32846356 8.32808204 8.32777587 8.32766917 8.32790556 8.32863222 8.32997633 8.33201596 8.33475419 8.33810645 8.34189742 8.34588771 8.34983578 8.35311101 8.35311101 8.35311101 8.35311101 8.35311101 8.35311101 8.35311101 8.35079655 8.34725459 8.34313473 8.33895646 8.33508197 8.33178502 8.32924184 8.32751943 8.32658134 8.32630940 8.32653658 8.32708113 8.32777374 8.32847420 8.32907786 8.32951435 8.32974205 8.32974205 8.32951435 8.32907786 8.32847420 8.32777374 8.32708113 8.32653658 8.32630940 8.32658134 8.32751943 8.32924184 8.33178502 8.33508197 8.33895646 8.34313473 8.34725459 8.35079655 8.35311101 8.35311101 8.35311101 8.35311101 8.35311101 8.35311101 8.34948917 8.34537639 8.34096862 8.33663330 8.33272358 8.32951819 8.32718718 8.32577736 8.32522082 8.32536314 8.32600252 8.32692861 8.32795212 8.32892136 8.32972680 8.33029713 8.33059139 8.33059139 8.33029713 8.32972680 8.32892136 8.32795212 8.32692861 8.32600252 8.32536314 8.32522082 8.32577736 8.32718718 8.32951819 8.33272358 8.33663330 8.34096862 8.34537639 8.34948917 8.35311101 8.35311101 8.35311101 8.35311101 8.35311101 8.35311101 8.34865083 8.34411635 8.33948080 8.33503571 8.33111726 8.32800035 8.32584653 8.32468516 8.32442361 8.32487990 8.32582662 8.32703312 8.32829661 8.32945844 8.33040691 8.33107126 8.33141201 8.33141201 8.33107126 8.33040691 8.32945844 8.32829661 8.32703312 8.32582662 8.32487990 8.32442361 8.32468516 8.32584653 8.32800035 8.33111726 8.33503571 8.33948080 8.34411635 8.34865083 8.35311101 8.35311101 8.35311101 8.35311101 8.35311101 8.35178936 8.34797214 8.34342899 8.33871417 8.33422177 8.33030559 8.32724227 8.32518879 8.32416464 8.32406356 8.32468876 8.32579921 8.32715376 8.32854293 8.32980484 8.33082711 8.33153972 8.33190425 8.33190425 8.33153972 8.33082711 8.32980484 8.32854293 8.32715376 8.32579921 8.32468876 8.32406356 8.32416464 8.32518879 8.32724227 8.33030559 8.33422177 8.33871417 8.34342899 8.34797214 8.35178936 8.35311101 8.35311101 8.35311101 8.35311101 8.35178936 8.34797214 8.34342899 8.33871417 8.33422177 8.33030559 8.32724227 8.32518879 8.32416464 8.32406356 8.32468876 8.32579921 8.32715376 8.32854293 8.32980484 8.33082711 8.33153972 8.33190425 8.33190425 8.33153972 8.33082711 8.32980484 8.32854293 8.32715376 8.32579921 8.32468876 8.32406356 8.32416464 8.32518879 8.32724227 8.33030559 8.33422177 8.33871417 8.34342899 8.34797214 8.35178936 8.35311101 8.35311101 8.35311101 8.35311101 8.35311101 8.34865083 8.34411635 8.33948080 8.33503571 8.33111726 8.32800035 8.32584653 8.32468516 8.32442361 8.32487990 8.32582662 8.32703312 8.32829661 8.32945844 8.33040691 8.33107126 8.33141201 8.33141201 8.33107126 8.33040691 8.32945844 8.32829661 8.32703312 8.32582662 8.32487990 8.32442361 8.32468516 8.32584653 8.32800035 8.33111726 8.33503571 8.33948080 8.34411635 8.34865083 8.35311101 8.35311101 8.35311101 8.35311101 8.35311101 8.35311101 8.34948917 8.34537639 8.34096862 8.33663330 8.33272358 8.32951819 8.32718718 8.32577736 8.32522082 8.32536314 8.32600252 8.32692861 8.32795212 8.32892136 8.32972680 8.33029713 8.33059139 8.33059139 8.33029713 8.32972680 8.32892136 8.32795212 8.32692861 8.32600252 8.32536314 8.32522082 8.32577736 8.32718718 8.32951819 8.33272358 8.33663330 8.34096862 8.34537639 8.34948917 8.35311101 8.35311101 8.35311101 8.35311101 8.35311101 8.35311101 8.35079655 8.34725459 8.34313473 8.33895646 8.33508197 8.33178502 8.32924184 8.32751943 8.32658134 8.32630940 8.32653658 8.32708113 8.32777374 8.32847420 8.32907786 8.32951435 8.32974205 8.32974205 8.32951435 8.32907786 8.32847420 8.32777374 8.32708113 8.32653658 8.32630940 8.32658134 8.32751943 8.32924184 8.33178502 8.33508197 8.33895646 8.34313473 8.34725459 8.35079655 8.35311101 8.35311101 8.35311101 8.35311101 8.35311101 8.35311101 8.35311101 8.34983578 8.34588771 8.34189742 8.33810645 8.33475419 8.33201596 8.32997633 8.32863222 8.32790556 8.32766917 8.32777587 8.32808204 8.32846356 8.32882432 8.32909777 8.32924375 8.32924375 8.32909777 8.32882432 8.32846356 8.32808204 8.32777587 8.32766917 8.32790556 8.32863222 8.32997633 8.33201596 8.33475419 8.33810645 8.34189742 8.34588771 8.34983578 8.35311101 8.35311101 8.35311101 8.35311101 8.35311101 8.35311101 8.35311101 8.35311101 8.35311101 8.34895507 8.34527380 8.34165404 8.33832125 8.33545778 8.33315680 8.33144786 8.33029176 8.32960146 8.32926770 8.32917661 8.32922373 8.32932495 8.32942136 8.32947766 8.32947766 8.32942136 8.32932495 8.32922373 8.32917661 8.32926770 8.32960146 8.33029176 8.33144786 8.33315680 8.33545778 8.33832125 8.34165404 8.34527380 8.34895507 8.35311101 8.35311101 8.35311101 8.35311101 8.35311101 8.35311101 8.35311101 8.35311101 8.35311101 8.35311101 8.35139684 8.34886941 8.34553500 8.34231084 8.33943920 8.33698211 8.33500758 8.33350825 8.33243191 8.33170950 8.33125875 8.33099530 8.33084847 8.33077123 8.33073811 8.33073811 8.33077123 8.33084847 8.33099530 8.33125875 8.33170950 8.33243191 8.33350825 8.33500758 8.33698211 8.33943920 8.34231084 8.34553500 8.34886941 8.35139684 8.35311101 8.35311101 8.35311101 8.35311101 8.35311101 8.35311101 8.35311101 8.35311101 8.35311101 8.35311101 8.35311101 8.35311101 8.34955625 8.34645876 8.34376263 8.34127654 8.33917810 8.33746766 8.33611616 8.33510254 8.33437517 8.33386309 8.33350510 8.33327182 8.33315605 8.33315605 8.33327182 8.33350510 8.33386309 8.33437517 8.33510254 8.33611616 8.33746766 8.33917810 8.34127654 8.34376263 8.34645876 8.34955625 8.35311101 8.35311101 8.35311101 8.35311101 8.35311101 8.35311101 8.35311101 8.35311101 8.35311101 8.35311101 8.35311101 8.35311101 8.35311101 8.35311101 8.35311101 8.35030518 8.34823941 8.34577748 8.34372887 8.34196029 8.34045757 8.33928151 8.33840055 8.33773447 8.33721481 8.33684504 8.33665415 8.33665415 8.33684504 8.33721481 8.33773447 8.33840055 8.33928151 8.34045757 8.34196029 8.34372887 8.34577748 8.34823941 8.35030518 8.35311101 8.35311101 8.35311101 8.35311101 8.35311101 8.35311101 8.35311101 8.35311101 8.35311101 8.35311101 8.35311101 8.35311101 8.35311101 8.35311101 8.35311101 8.35311101 8.35311101 8.35311101 8.35009922 8.34839348 8.34667466 8.34511429 8.34393500 8.34306856 8.34237347 8.34171947 8.34120745 8.34094075 8.34094075 8.34120745 8.34171947 8.34237347 8.34306856 8.34393500 8.34511429 8.34667466 8.34839348 8.35009922 8.35311101 8.35311101 8.35311101 8.35311101 8.35311101 8.35311101 8.35311101 8.35311101 8.35311101 8.35311101 8.35311101 8.35311101 8.35311101 8.35311101 8.35311101 8.35311101 8.35311101 8.35311101 8.35311101 8.35311101 8.35311101 8.35311101 8.35108611 8.34957314 8.34866010 8.34805519 8.34750917 8.34661013 8.34588132 8.34553053 8.34553053 8.34588132 8.34661013 8.34750917 8.34805519 8.34866010 8.34957314 8.35108611 8.35311101 8.35311101 8.35311101 8.35311101 8.35311101 8.35311101 8.35311101 8.35311101 8.35311101 8.35311101 8.35311101 8.35311101 8.35311101 8.35311101 8.35311101 8.35311101 8.35311101 8.35311101 8.35311101 8.35311101 8.35311101 8.35311101 8.35311101 8.35311101 8.35311101 8.35311101 8.35311101 8.35311101 8.35311101 8.35119393 8.35016092 8.34978310 8.34978310 8.35016092 8.35119393 8.35311101 8.35311101 8.35311101 8.35311101 8.35311101 8.35311101 8.35311101 8.35311101 8.35311101 8.35311101 8.35311101 8.35311101 8.35311101 8.35311101 8.35311101 8.35311101 8.35311101 8.35311101 8.35311101 8.35311101 8.35311101 8.35311101 8.35311101 8.35311101 8.35311101 8.35311101 8.35311101 8.35311101 8.35311101 8.35311101 8.35311101 8.35311101 8.35311101 8.35311101 8.35311101 8.35311101 8.35311101 8.35311101 8.35311101 8.35311101 8.35311101 8.35311101 8.35311101 8.35311101 8.35311101 8.35311101 8.35311101 8.35311101 8.35311101 8.35311101 8.35311101 8.35311101 8.35311101 8.35311101 8.35311101 8.35311101 8.35311101 8.35311101 8.35311101 8.35311101 8.35311101 8.35311101 8.35311101 8.35311101 8.35311101 8.35311101 8.35311101 8.35311101 8.35311101 8.35311101 8.35311101 8.35311101 8.35311101 8.35311101 8.35311101 8.35311101 8.35311101 8.35311101 8.35311101 8.35311101 8.35311101 8.35311101 8.35311101 8.35311101 8.35311101 8.35311101 8.35311101 8.35311101 8.35311101 8.35311101 8.35311101 8.35311101 8.35311101 8.35311101 8.35311101 8.35311101 8.35311101 8.35311101 8.35311101 8.35311101 8.35311101 8.35311101 8.35311101 8.35311101 8.35311101 8.35311101 8.35311101 8.35311101 8.35311101 8.35311101 8.35311101 8.35311101 8.35311101 8.35311101 8.35311101 8.35311101 8.35311101 8.35311101 8.35311101 8.35311101 8.35311101 8.35311101 8.35311101 8.35311101 8.35311101 8.35311101 8.35311101 8.35311101 8.35311101 8.35311101 8.35311101 8.35311101 8.35311101 8.35311101 8.35311101 8.35311101 8.35311101 8.35311101 8.35311101 8.35311101 8.35311101 8.35311101 8.35311101 8.35311101 8.35311101 8.35311101 8.35311101 8.35311101 8.35311101 8.35311101 8.35311101 8.35311101 8.35311101 8.35311101 8.35311101 8.35311101 8.35311101 8.35311101 8.35311101 8.35311101 8.35311101 8.35311101 8.35311101 8.35311101 8.35311101 8.35311101 8.35311101 8.35311101 8.35311101 8.35311101 8.35311101 8.35311101 8.35311101 8.35311101 8.35311101 8.35311101 8.35311101 8.35311101 8.35311101 8.35311101 8.35311101 8.35311101 8.35311101 8.35311101 8.35311101 8.35311101 8.35311101 8.35311101 8.35311101 8.35311101 8.35311101 8.35311101 8.35311101 8.35311101 8.35311101 8.35311101 8.35311101 8.35311101 8.35311101 8.35311101 8.35311101 8.35311101 8.35311101 8.35311101 8.35311101 8.35311101 8.35311101 8.35311101 8.35311101 8.35311101 8.35311101 8.35311101 8.35311101 8.35311101 8.35311101 8.35311101 8.35311101 8.35311101 8.35311101 8.35311101 8.35311101 8.35311101 8.35311101 8.35311101 8.35311101 8.35311101 8.35311101 8.35311101 8.35311101 8.35311101 8.35311101 8.35311101 8.35311101 8.35311101 8.35311101 8.35311101 8.35311101 8.35311101 8.35311101 8.35311101 8.35311101 8.35311101 8.35311101 8.35311101 8.35311101 8.35311101 8.35311101 8.35311101 8.35311101 8.35311101 8.35311101 8.35311101 8.35311101 8.35311101 8.35311101 8.35311101 8.35311101 8.35311101 8.35311101 8.35311101 8.35311101 8.35311101 8.35311101 8.35311101 8.35311101 8.35311101 8.35311101 8.35311101 8.35311101 8.35311101 8.35311101 8.35311101 8.35311101 8.35311101 8.35311101 8.35311101 8.35311101 8.35311101 8.35311101 8.35311101 8.35311101 8.35311101 8.35311101 8.35311101 8.35311101 8.35311101 8.35311101 8.35311101 8.35311101 8.35311101 8.35311101 8.35311101 8.35311101 8.35311101 8.35311101 8.35311101 8.35311101 8.35311101 8.35311101 8.35311101 8.35311101 8.35311101 8.35311101 8.35311101 8.35311101 8.35311101 8.35311101 8.35311101 8.35311101 8.35311101 8.35311101 8.35311101 8.35311101 8.35311101 8.35311101 8.35311101 8.35311101 8.35311101 8.35311101 8.35311101 8.35311101 8.35311101 8.35311101 8.35311101 8.35311101 8.35311101 8.35311101 8.35311101 8.35311101 8.35311101 8.35311101 8.35311101 8.35311101 8.35311101 8.35311101 8.35311101 8.35311101 