# vtk DataFile Version 3.0
VTK - Matlab export
ASCII
DATASET STRUCTURED_POINTS
DIMENSIONS 40 40 1
SPACING 1 1 1
ORIGIN 0 0 0
POINT_DATA 1600
SCALARS Proofstrength float 1
LOOKUP_TABLE default
140.71398941 140.71398941 140.71398941 140.71398941 140.71398941 140.71398941 140.71398941 140.71398941 140.71398941 140.71398941 140.71398941 140.71398941 140.71398941 140.71398941 140.71398941 140.71398941 140.71398941 140.71398941 140.71398941 140.71398941 140.71398941 140.71398941 140.71398941 140.71398941 140.71398941 140.71398941 140.71398941 140.71398941 140.71398941 140.71398941 140.71398941 140.71398941 140.71398941 140.71398941 140.71398941 140.71398941 140.71398941 140.71398941 140.71398941 140.71398941 140.71398941 140.71398941 140.71398941 140.71398941 140.71398941 140.71398941 140.71398941 140.71398941 140.71398941 140.71398941 140.71398941 140.71398941 140.71398941 140.71398941 140.71398941 140.71398941 140.71398941 140.71398941 140.71398941 140.71398941 140.71398941 140.71398941 140.71398941 140.71398941 140.71398941 140.71398941 140.71398941 140.71398941 140.71398941 140.71398941 140.71398941 140.71398941 140.71398941 140.71398941 140.71398941 140.71398941 140.71398941 140.71398941 140.71398941 140.71398941 140.71398941 140.71398941 140.71398941 140.71398941 140.71398941 140.71398941 140.71398941 140.71398941 140.71398941 140.71398941 140.71398941 140.71398941 140.71398941 140.71398941 140.71398941 140.71398941 140.71398941 140.71398941 140.71398941 140.71398941 140.71398941 140.71398941 140.71398941 140.71398941 140.71398941 140.71398941 140.71398941 140.71398941 140.71398941 140.71398941 140.71398941 140.71398941 140.71398941 140.71398941 140.71398941 140.71398941 140.71398941 140.71398941 140.71398941 140.71398941 140.71398941 140.71398941 140.71398941 140.71398941 140.71398941 140.71398941 140.71398941 140.71398941 140.71398941 140.71398941 140.71398941 140.71398941 140.71398941 140.71398941 140.71398941 140.71398941 140.71398941 140.71398941 140.71398941 140.71398941 140.71398941 140.71398941 140.71398941 140.71398941 140.71398941 140.71398941 140.71398941 140.71398941 140.71398941 140.71398941 140.71398941 140.71398941 140.71398941 140.71398941 140.71398941 140.71398941 140.71398941 140.71398941 140.71398941 140.71398941 140.71398941 140.71398941 140.71398941 140.71398941 140.71398941 140.71398941 140.71398941 140.71398941 140.71398941 140.71398941 140.71398941 140.71398941 140.71398941 140.71398941 140.71398941 140.71398941 140.71398941 140.71398941 140.71398941 140.71398941 140.71398941 140.71398941 140.71398941 140.71398941 140.71398941 140.71398941 140.71398941 140.71398941 140.71398941 140.71398941 140.71398941 140.71398941 140.71398941 140.71398941 140.71398941 140.71398941 140.71398941 140.71398941 140.71398941 140.71398941 140.71398941 140.71398941 140.71398941 140.71398941 140.71398941 140.71398941 140.71398941 140.71398941 140.71398941 140.71398941 140.71398941 140.71398941 140.71398941 140.71398941 140.71398941 140.71398941 140.71398941 140.71398941 140.71398941 140.71398941 140.71398941 140.71398941 140.71398941 140.71398941 140.71398941 140.71398941 140.71398941 140.71398941 140.71398941 140.71398941 140.71398941 140.71398941 140.71398941 140.71398941 140.71398941 140.71398941 140.71398941 140.71398941 140.71398941 140.71398941 140.71398941 140.71398941 140.71398941 140.71398941 140.71398941 140.71398941 140.71398941 140.71398941 140.71398941 140.71398941 140.71398941 140.71398941 140.71398941 140.71398941 140.71398941 140.71398941 140.71398941 140.71398941 140.71398941 140.71398941 140.71398941 140.71398941 140.71398941 140.71398941 140.71398941 140.71398941 140.71398941 140.71398941 140.71398941 140.71398941 140.71398941 140.71398941 140.71398941 140.71398941 140.71398941 140.71398941 140.71398941 140.71398941 140.71398941 140.71398941 140.71398941 140.71398941 140.71398941 140.71398941 140.71398941 140.71398941 140.71398941 140.71398941 140.71398941 140.71398941 140.71398941 140.71398941 140.71398941 140.71398941 140.71398941 140.71398941 140.71398941 140.71398941 140.71398941 140.71398941 140.71398941 140.71398941 140.71398941 140.71398941 140.71398941 140.71398941 140.71398941 140.71398941 140.71398941 140.71398941 140.71398941 140.71398941 140.71398941 140.71398941 140.71398941 140.71398941 140.71398941 140.71398941 140.71398941 140.71398941 140.71398941 140.71398941 140.71398941 140.71398941 140.71398941 140.71398941 140.71398941 140.71398941 140.71398941 140.71398941 140.71398941 140.71398941 140.71398941 140.71398941 140.71398941 140.71398941 140.71398941 140.71775171 140.71980812 140.72056782 140.72056782 140.71980812 140.71775171 140.71398941 140.71398941 140.71398941 140.71398941 140.71398941 140.71398941 140.71398941 140.71398941 140.71398941 140.71398941 140.71398941 140.71398941 140.71398941 140.71398941 140.71398941 140.71398941 140.71398941 140.71398941 140.71398941 140.71398941 140.71398941 140.71398941 140.71398941 140.71398941 140.71398941 140.71398941 140.71398941 140.71398941 140.71398941 140.71796309 140.72092777 140.72268614 140.72381988 140.72484278 140.72659161 140.72803080 140.72872805 140.72872805 140.72803080 140.72659161 140.72484278 140.72381988 140.72268614 140.72092777 140.71796309 140.71398941 140.71398941 140.71398941 140.71398941 140.71398941 140.71398941 140.71398941 140.71398941 140.71398941 140.71398941 140.71398941 140.71398941 140.71398941 140.71398941 140.71398941 140.71398941 140.71398941 140.71398941 140.71398941 140.71398941 140.71398941 140.71398941 140.71990469 140.72320580 140.72649305 140.72943567 140.73159333 140.73311994 140.73432696 140.73549918 140.73644059 140.73693587 140.73693587 140.73644059 140.73549918 140.73432696 140.73311994 140.73159333 140.72943567 140.72649305 140.72320580 140.71990469 140.71398941 140.71398941 140.71398941 140.71398941 140.71398941 140.71398941 140.71398941 140.71398941 140.71398941 140.71398941 140.71398941 140.71398941 140.71398941 140.71398941 140.71398941 140.71398941 140.71398941 140.71398941 140.71953787 140.72353733 140.72823423 140.73201156 140.73515558 140.73772831 140.73963881 140.74098417 140.74195951 140.74272715 140.74328892 140.74358383 140.74358383 140.74328892 140.74272715 140.74195951 140.74098417 140.73963881 140.73772831 140.73515558 140.73201156 140.72823423 140.72353733 140.71953787 140.71398941 140.71398941 140.71398941 140.71398941 140.71398941 140.71398941 140.71398941 140.71398941 140.71398941 140.71398941 140.71398941 140.71398941 140.71398941 140.71398941 140.71398941 140.72105095 140.72705544 140.73206594 140.73647560 140.73996542 140.74259585 140.74449266 140.74575556 140.74653365 140.74700210 140.74730180 140.74749544 140.74759287 140.74759287 140.74749544 140.74730180 140.74700210 140.74653365 140.74575556 140.74449266 140.74259585 140.73996542 140.73647560 140.73206594 140.72705544 140.72105095 140.71398941 140.71398941 140.71398941 140.71398941 140.71398941 140.71398941 140.71398941 140.71398941 140.71398941 140.71398941 140.71398941 140.71398941 140.71748829 140.72252868 140.72898093 140.73491417 140.73982576 140.74364819 140.74634418 140.74804446 140.74895882 140.74930221 140.74928432 140.74909232 140.74886644 140.74868803 140.74859278 140.74859278 140.74868803 140.74886644 140.74909232 140.74928432 140.74930221 140.74895882 140.74804446 140.74634418 140.74364819 140.73982576 140.73491417 140.72898093 140.72252868 140.71748829 140.71398941 140.71398941 140.71398941 140.71398941 140.71398941 140.71398941 140.71398941 140.71398941 140.71398941 140.71398941 140.72248679 140.72972841 140.73642508 140.74206786 140.74633441 140.74917134 140.75069950 140.75117602 140.75091390 140.75021221 140.74932425 140.74844469 140.74770603 140.74718492 140.74691776 140.74691776 140.74718492 140.74770603 140.74844469 140.74932425 140.75021221 140.75091390 140.75117602 140.75069950 140.74917134 140.74633441 140.74206786 140.73642508 140.72972841 140.72248679 140.71398941 140.71398941 140.71398941 140.71398941 140.71398941 140.71398941 140.71398941 140.71398941 140.71398941 140.72081934 140.72878896 140.73637717 140.74294151 140.74797795 140.75125651 140.75283900 140.75300307 140.75214474 140.75067782 140.74896139 140.74726809 140.74578230 140.74461378 140.74381783 140.74341667 140.74341667 140.74381783 140.74461378 140.74578230 140.74726809 140.74896139 140.75067782 140.75214474 140.75300307 140.75283900 140.75125651 140.74797795 140.74294151 140.73637717 140.72878896 140.72081934 140.71398941 140.71398941 140.71398941 140.71398941 140.71398941 140.71398941 140.71398941 140.71891044 140.72626057 140.73440749 140.74201501 140.74819472 140.75242430 140.75456484 140.75482047 140.75362601 140.75150802 140.74896368 140.74638716 140.74404736 140.74210144 140.74062433 140.73964049 140.73915072 140.73915072 140.73964049 140.74062433 140.74210144 140.74404736 140.74638716 140.74896368 140.75150802 140.75362601 140.75482047 140.75456484 140.75242430 140.74819472 140.74201501 140.73440749 140.72626057 140.71891044 140.71398941 140.71398941 140.71398941 140.71398941 140.71398941 140.71398941 140.72171024 140.73021277 140.73876398 140.74632357 140.75204071 140.75544500 140.75650447 140.75556452 140.75320033 140.75004561 140.74665657 140.74344097 140.74064887 140.73840200 140.73673703 140.73564628 140.73510853 140.73510853 140.73564628 140.73673703 140.73840200 140.74064887 140.74344097 140.74665657 140.75004561 140.75320033 140.75556452 140.75650447 140.75544500 140.75204071 140.74632357 140.73876398 140.73021277 140.72171024 140.71398941 140.71398941 140.71398941 140.71398941 140.71398941 140.71398941 140.72350784 140.73284852 140.74170802 140.74919251 140.75450731 140.75724474 140.75746738 140.75563374 140.75242399 140.74854629 140.74459202 140.74096952 140.73790662 140.73549293 140.73373317 140.73259373 140.73203594 140.73203594 140.73259373 140.73373317 140.73549293 140.73790662 140.74096952 140.74459202 140.74854629 140.75242399 140.75563374 140.75746738 140.75724474 140.75450731 140.74919251 140.74170802 140.73284852 140.72350784 140.71398941 140.71398941 140.71398941 140.71398941 140.71398941 140.71683734 140.72497355 140.73428565 140.74320926 140.75062105 140.75570004 140.75806593 140.75783394 140.75552479 140.75187453 140.74762902 140.74339537 140.73957903 140.73639344 140.73390934 140.73211343 140.73095779 140.73039423 140.73039423 140.73095779 140.73211343 140.73390934 140.73639344 140.73957903 140.74339537 140.74762902 140.75187453 140.75552479 140.75783394 140.75806593 140.75570004 140.75062105 140.74320926 140.73428565 140.72497355 140.71683734 140.71398941 140.71398941 140.71398941 140.71398941 140.71683734 140.72497355 140.73428565 140.74320926 140.75062105 140.75570004 140.75806593 140.75783394 140.75552479 140.75187453 140.74762902 140.74339537 140.73957903 140.73639344 140.73390934 140.73211343 140.73095779 140.73039423 140.73039423 140.73095779 140.73211343 140.73390934 140.73639344 140.73957903 140.74339537 140.74762902 140.75187453 140.75552479 140.75783394 140.75806593 140.75570004 140.75062105 140.74320926 140.73428565 140.72497355 140.71683734 140.71398941 140.71398941 140.71398941 140.71398941 140.71398941 140.72350784 140.73284852 140.74170802 140.74919251 140.75450731 140.75724474 140.75746738 140.75563374 140.75242399 140.74854629 140.74459202 140.74096952 140.73790662 140.73549293 140.73373317 140.73259373 140.73203594 140.73203594 140.73259373 140.73373317 140.73549293 140.73790662 140.74096952 140.74459202 140.74854629 140.75242399 140.75563374 140.75746738 140.75724474 140.75450731 140.74919251 140.74170802 140.73284852 140.72350784 140.71398941 140.71398941 140.71398941 140.71398941 140.71398941 140.71398941 140.72171024 140.73021277 140.73876398 140.74632357 140.75204071 140.75544500 140.75650447 140.75556452 140.75320033 140.75004561 140.74665657 140.74344097 140.74064887 140.73840200 140.73673703 140.73564628 140.73510853 140.73510853 140.73564628 140.73673703 140.73840200 140.74064887 140.74344097 140.74665657 140.75004561 140.75320033 140.75556452 140.75650447 140.75544500 140.75204071 140.74632357 140.73876398 140.73021277 140.72171024 140.71398941 140.71398941 140.71398941 140.71398941 140.71398941 140.71398941 140.71891044 140.72626057 140.73440749 140.74201501 140.74819472 140.75242430 140.75456484 140.75482047 140.75362601 140.75150802 140.74896368 140.74638716 140.74404736 140.74210144 140.74062433 140.73964049 140.73915072 140.73915072 140.73964049 140.74062433 140.74210144 140.74404736 140.74638716 140.74896368 140.75150802 140.75362601 140.75482047 140.75456484 140.75242430 140.74819472 140.74201501 140.73440749 140.72626057 140.71891044 140.71398941 140.71398941 140.71398941 140.71398941 140.71398941 140.71398941 140.71398941 140.72081934 140.72878896 140.73637717 140.74294151 140.74797795 140.75125651 140.75283900 140.75300307 140.75214474 140.75067782 140.74896139 140.74726809 140.74578230 140.74461378 140.74381783 140.74341667 140.74341667 140.74381783 140.74461378 140.74578230 140.74726809 140.74896139 140.75067782 140.75214474 140.75300307 140.75283900 140.75125651 140.74797795 140.74294151 140.73637717 140.72878896 140.72081934 140.71398941 140.71398941 140.71398941 140.71398941 140.71398941 140.71398941 140.71398941 140.71398941 140.71398941 140.72248679 140.72972841 140.73642508 140.74206786 140.74633441 140.74917134 140.75069950 140.75117602 140.75091390 140.75021221 140.74932425 140.74844469 140.74770603 140.74718492 140.74691776 140.74691776 140.74718492 140.74770603 140.74844469 140.74932425 140.75021221 140.75091390 140.75117602 140.75069950 140.74917134 140.74633441 140.74206786 140.73642508 140.72972841 140.72248679 140.71398941 140.71398941 140.71398941 140.71398941 140.71398941 140.71398941 140.71398941 140.71398941 140.71398941 140.71398941 140.71748829 140.72252868 140.72898093 140.73491417 140.73982576 140.74364819 140.74634418 140.74804446 140.74895882 140.74930221 140.74928432 140.74909232 140.74886644 140.74868803 140.74859278 140.74859278 140.74868803 140.74886644 140.74909232 140.74928432 140.74930221 140.74895882 140.74804446 140.74634418 140.74364819 140.73982576 140.73491417 140.72898093 140.72252868 140.71748829 140.71398941 140.71398941 140.71398941 140.71398941 140.71398941 140.71398941 140.71398941 140.71398941 140.71398941 140.71398941 140.71398941 140.71398941 140.72105095 140.72705544 140.73206594 140.73647560 140.73996542 140.74259585 140.74449266 140.74575556 140.74653365 140.74700210 140.74730180 140.74749544 140.74759287 140.74759287 140.74749544 140.74730180 140.74700210 140.74653365 140.74575556 140.74449266 140.74259585 140.73996542 140.73647560 140.73206594 140.72705544 140.72105095 140.71398941 140.71398941 140.71398941 140.71398941 140.71398941 140.71398941 140.71398941 140.71398941 140.71398941 140.71398941 140.71398941 140.71398941 140.71398941 140.71398941 140.71398941 140.71953787 140.72353733 140.72823423 140.73201156 140.73515558 140.73772831 140.73963881 140.74098417 140.74195951 140.74272715 140.74328892 140.74358383 140.74358383 140.74328892 140.74272715 140.74195951 140.74098417 140.73963881 140.73772831 140.73515558 140.73201156 140.72823423 140.72353733 140.71953787 140.71398941 140.71398941 140.71398941 140.71398941 140.71398941 140.71398941 140.71398941 140.71398941 140.71398941 140.71398941 140.71398941 140.71398941 140.71398941 140.71398941 140.71398941 140.71398941 140.71398941 140.71398941 140.71990469 140.72320580 140.72649305 140.72943567 140.73159333 140.73311994 140.73432696 140.73549918 140.73644059 140.73693587 140.73693587 140.73644059 140.73549918 140.73432696 140.73311994 140.73159333 140.72943567 140.72649305 140.72320580 140.71990469 140.71398941 140.71398941 140.71398941 140.71398941 140.71398941 140.71398941 140.71398941 140.71398941 140.71398941 140.71398941 140.71398941 140.71398941 140.71398941 140.71398941 140.71398941 140.71398941 140.71398941 140.71398941 140.71398941 140.71398941 140.71398941 140.71398941 140.71796309 140.72092777 140.72268614 140.72381988 140.72484278 140.72659161 140.72803080 140.72872805 140.72872805 140.72803080 140.72659161 140.72484278 140.72381988 140.72268614 140.72092777 140.71796309 140.71398941 140.71398941 140.71398941 140.71398941 140.71398941 140.71398941 140.71398941 140.71398941 140.71398941 140.71398941 140.71398941 140.71398941 140.71398941 140.71398941 140.71398941 140.71398941 140.71398941 140.71398941 140.71398941 140.71398941 140.71398941 140.71398941 140.71398941 140.71398941 140.71398941 140.71398941 140.71398941 140.71398941 140.71398941 140.71775171 140.71980812 140.72056782 140.72056782 140.71980812 140.71775171 140.71398941 140.71398941 140.71398941 140.71398941 140.71398941 140.71398941 140.71398941 140.71398941 140.71398941 140.71398941 140.71398941 140.71398941 140.71398941 140.71398941 140.71398941 140.71398941 140.71398941 140.71398941 140.71398941 140.71398941 140.71398941 140.71398941 140.71398941 140.71398941 140.71398941 140.71398941 140.71398941 140.71398941 140.71398941 140.71398941 140.71398941 140.71398941 140.71398941 140.71398941 140.71398941 140.71398941 140.71398941 140.71398941 140.71398941 140.71398941 140.71398941 140.71398941 140.71398941 140.71398941 140.71398941 140.71398941 140.71398941 140.71398941 140.71398941 140.71398941 140.71398941 140.71398941 140.71398941 140.71398941 140.71398941 140.71398941 140.71398941 140.71398941 140.71398941 140.71398941 140.71398941 140.71398941 140.71398941 140.71398941 140.71398941 140.71398941 140.71398941 140.71398941 140.71398941 140.71398941 140.71398941 140.71398941 140.71398941 140.71398941 140.71398941 140.71398941 140.71398941 140.71398941 140.71398941 140.71398941 140.71398941 140.71398941 140.71398941 140.71398941 140.71398941 140.71398941 140.71398941 140.71398941 140.71398941 140.71398941 140.71398941 140.71398941 140.71398941 140.71398941 140.71398941 140.71398941 140.71398941 140.71398941 140.71398941 140.71398941 140.71398941 140.71398941 140.71398941 140.71398941 140.71398941 140.71398941 140.71398941 140.71398941 140.71398941 140.71398941 140.71398941 140.71398941 140.71398941 140.71398941 140.71398941 140.71398941 140.71398941 140.71398941 140.71398941 140.71398941 140.71398941 140.71398941 140.71398941 140.71398941 140.71398941 140.71398941 140.71398941 140.71398941 140.71398941 140.71398941 140.71398941 140.71398941 140.71398941 140.71398941 140.71398941 140.71398941 140.71398941 140.71398941 140.71398941 140.71398941 140.71398941 140.71398941 140.71398941 140.71398941 140.71398941 140.71398941 140.71398941 140.71398941 140.71398941 140.71398941 140.71398941 140.71398941 140.71398941 140.71398941 140.71398941 140.71398941 140.71398941 140.71398941 140.71398941 140.71398941 140.71398941 140.71398941 140.71398941 140.71398941 140.71398941 140.71398941 140.71398941 140.71398941 140.71398941 140.71398941 140.71398941 140.71398941 140.71398941 140.71398941 140.71398941 140.71398941 140.71398941 140.71398941 140.71398941 140.71398941 140.71398941 140.71398941 140.71398941 140.71398941 140.71398941 140.71398941 140.71398941 140.71398941 140.71398941 140.71398941 140.71398941 140.71398941 140.71398941 140.71398941 140.71398941 140.71398941 140.71398941 140.71398941 140.71398941 140.71398941 140.71398941 140.71398941 140.71398941 140.71398941 140.71398941 140.71398941 140.71398941 140.71398941 140.71398941 140.71398941 140.71398941 140.71398941 140.71398941 140.71398941 140.71398941 140.71398941 140.71398941 140.71398941 140.71398941 140.71398941 140.71398941 140.71398941 140.71398941 140.71398941 140.71398941 140.71398941 140.71398941 140.71398941 140.71398941 140.71398941 140.71398941 140.71398941 140.71398941 140.71398941 140.71398941 140.71398941 140.71398941 140.71398941 140.71398941 140.71398941 140.71398941 140.71398941 140.71398941 140.71398941 140.71398941 140.71398941 140.71398941 140.71398941 140.71398941 140.71398941 140.71398941 140.71398941 140.71398941 140.71398941 140.71398941 140.71398941 140.71398941 140.71398941 140.71398941 140.71398941 140.71398941 140.71398941 140.71398941 140.71398941 140.71398941 140.71398941 140.71398941 140.71398941 140.71398941 140.71398941 140.71398941 140.71398941 140.71398941 140.71398941 140.71398941 140.71398941 140.71398941 140.71398941 140.71398941 140.71398941 140.71398941 140.71398941 140.71398941 140.71398941 140.71398941 140.71398941 140.71398941 140.71398941 140.71398941 140.71398941 140.71398941 140.71398941 140.71398941 140.71398941 140.71398941 140.71398941 140.71398941 140.71398941 140.71398941 140.71398941 140.71398941 140.71398941 140.71398941 140.71398941 140.71398941 140.71398941 140.71398941 140.71398941 140.71398941 140.71398941 140.71398941 140.71398941 140.71398941 140.71398941 140.71398941 140.71398941 140.71398941 140.71398941 140.71398941 140.71398941 140.71398941 140.71398941 140.71398941 140.71398941 140.71398941 140.71398941 140.71398941 140.71398941 140.71398941 140.71398941 140.71398941 140.71398941 140.71398941 140.71398941 140.71398941 140.71398941 140.71398941 