# vtk DataFile Version 3.0
VTK - Matlab export
ASCII
DATASET STRUCTURED_POINTS
DIMENSIONS 40 40 1
SPACING 1 1 1
ORIGIN 0 0 0
POINT_DATA 1600
SCALARS Proofstrength float 1
LOOKUP_TABLE default
140.71398941 140.71398941 140.71398941 140.71398941 140.71398941 140.71398941 140.71398941 140.71398941 140.71398941 140.71398941 140.71398941 140.71398941 140.71398941 140.71398941 140.71398941 140.71398941 140.71398941 140.71398941 140.71398941 140.71398941 140.71398941 140.71398941 140.71398941 140.71398941 140.71398941 140.71398941 140.71398941 140.71398941 140.71398941 140.71398941 140.71398941 140.71398941 140.71398941 140.71398941 140.71398941 140.71398941 140.71398941 140.71398941 140.71398941 140.71398941 140.71398941 140.71398941 140.71398941 140.71398941 140.71398941 140.71398941 140.71398941 140.71398941 140.71398941 140.71398941 140.71398941 140.71398941 140.71398941 140.71398941 140.71398941 140.71398941 140.71398941 140.71398941 140.71398941 140.71398941 140.71398941 140.71398941 140.71398941 140.71398941 140.71398941 140.71398941 140.71398941 140.71398941 140.71398941 140.71398941 140.71398941 140.71398941 140.71398941 140.71398941 140.71398941 140.71398941 140.71398941 140.71398941 140.71398941 140.71398941 140.71398941 140.71398941 140.71398941 140.71398941 140.71398941 140.71398941 140.71398941 140.71398941 140.71398941 140.71398941 140.71398941 140.71398941 140.71398941 140.71398941 140.71398941 140.71398941 140.71398941 140.71398941 140.71398941 140.71398941 140.71398941 140.71398941 140.71398941 140.71398941 140.71398941 140.71398941 140.71398941 140.71398941 140.71398941 140.71398941 140.71398941 140.71398941 140.71398941 140.71398941 140.71398941 140.71398941 140.71398941 140.71398941 140.71398941 140.71398941 140.71398941 140.71398941 140.71398941 140.71398941 140.71398941 140.71398941 140.71398941 140.71398941 140.71398941 140.71398941 140.71398941 140.71398941 140.71398941 140.71398941 140.71398941 140.71398941 140.71398941 140.71398941 140.71398941 140.71398941 140.71398941 140.71398941 140.71398941 140.71398941 140.71398941 140.71398941 140.71398941 140.71398941 140.71398941 140.71398941 140.71398941 140.71398941 140.71398941 140.71398941 140.71398941 140.71398941 140.71398941 140.71398941 140.71398941 140.71398941 140.71398941 140.71398941 140.71398941 140.71398941 140.71398941 140.71398941 140.71398941 140.71398941 140.71398941 140.71398941 140.71398941 140.71398941 140.71398941 140.71398941 140.71398941 140.71398941 140.71398941 140.71398941 140.71398941 140.71398941 140.71398941 140.71398941 140.71398941 140.71398941 140.71398941 140.71398941 140.71398941 140.71398941 140.71398941 140.71398941 140.71398941 140.71398941 140.71398941 140.71398941 140.71398941 140.71398941 140.71398941 140.71398941 140.71398941 140.71398941 140.71398941 140.71398941 140.71398941 140.71398941 140.71398941 140.71398941 140.71398941 140.71398941 140.71398941 140.71398941 140.71398941 140.71398941 140.71398941 140.71398941 140.71398941 140.71398941 140.71398941 140.71398941 140.71398941 140.71398941 140.71398941 140.71398941 140.71398941 140.71398941 140.71398941 140.71398941 140.71398941 140.71398941 140.71398941 140.71398941 140.71398941 140.71398941 140.71398941 140.71398941 140.71398941 140.71398941 140.71398941 140.71398941 140.71398941 140.71398941 140.71398941 140.71398941 140.71398941 140.71398941 140.71398941 140.71398941 140.71398941 140.71398941 140.71398941 140.71398941 140.71398941 140.71398941 140.71398941 140.71398941 140.71398941 140.71398941 140.71398941 140.71398941 140.71398941 140.71398941 140.71398941 140.71398941 140.71398941 140.71398941 140.71398941 140.71398941 140.71398941 140.71398941 140.71398941 140.71398941 140.71398941 140.71398941 140.71398941 140.71398941 140.71398941 140.71398941 140.71398941 140.71398941 140.71398941 140.71398941 140.71398941 140.71398941 140.71398941 140.71398941 140.71398941 140.71398941 140.71398941 140.71398941 140.71398941 140.71398941 140.71398941 140.71398941 140.71398941 140.71398941 140.71398941 140.71398941 140.71398941 140.71398941 140.71398941 140.71398941 140.71398941 140.71398941 140.71398941 140.71398941 140.71398941 140.71398941 140.71398941 140.71398941 140.71398941 140.71398941 140.71398941 140.71398941 140.71398941 140.71398941 140.71398941 140.71398941 140.71398941 140.71398941 140.71398941 140.71398941 140.71398941 140.71398941 140.71398941 140.71398941 140.71398941 140.71398941 140.71398941 140.71398941 140.71398941 140.71398941 140.71398941 140.71398941 140.71398941 140.71398941 140.71398941 140.71398941 140.71398941 140.71925786 140.72217573 140.72326450 140.72326450 140.72217573 140.71925786 140.71398941 140.71398941 140.71398941 140.71398941 140.71398941 140.71398941 140.71398941 140.71398941 140.71398941 140.71398941 140.71398941 140.71398941 140.71398941 140.71398941 140.71398941 140.71398941 140.71398941 140.71398941 140.71398941 140.71398941 140.71398941 140.71398941 140.71398941 140.71398941 140.71398941 140.71398941 140.71398941 140.71398941 140.71398941 140.71955239 140.72369870 140.72611675 140.72763225 140.72899844 140.73142416 140.73345118 140.73444066 140.73444066 140.73345118 140.73142416 140.72899844 140.72763225 140.72611675 140.72369870 140.71955239 140.71398941 140.71398941 140.71398941 140.71398941 140.71398941 140.71398941 140.71398941 140.71398941 140.71398941 140.71398941 140.71398941 140.71398941 140.71398941 140.71398941 140.71398941 140.71398941 140.71398941 140.71398941 140.71398941 140.71398941 140.71398941 140.71398941 140.72224878 140.72681221 140.73131298 140.73528804 140.73811283 140.74002846 140.74151715 140.74301736 140.74425803 140.74491897 140.74491897 140.74425803 140.74301736 140.74151715 140.74002846 140.73811283 140.73528804 140.73131298 140.72681221 140.72224878 140.71398941 140.71398941 140.71398941 140.71398941 140.71398941 140.71398941 140.71398941 140.71398941 140.71398941 140.71398941 140.71398941 140.71398941 140.71398941 140.71398941 140.71398941 140.71398941 140.71398941 140.71398941 140.72172701 140.72722942 140.73363039 140.73863274 140.74265713 140.74582426 140.74803618 140.74947027 140.75044727 140.75123005 140.75183059 140.75215483 140.75215483 140.75183059 140.75123005 140.75044727 140.74947027 140.74803618 140.74582426 140.74265713 140.73863274 140.73363039 140.72722942 140.72172701 140.71398941 140.71398941 140.71398941 140.71398941 140.71398941 140.71398941 140.71398941 140.71398941 140.71398941 140.71398941 140.71398941 140.71398941 140.71398941 140.71398941 140.71398941 140.72381512 140.73203244 140.73866439 140.74427682 140.74845568 140.75134954 140.75320330 140.75421198 140.75462960 140.75473667 140.75475022 140.75475968 140.75476945 140.75476945 140.75475968 140.75475022 140.75473667 140.75462960 140.75421198 140.75320330 140.75134954 140.74845568 140.74427682 140.73866439 140.73203244 140.72381512 140.71398941 140.71398941 140.71398941 140.71398941 140.71398941 140.71398941 140.71398941 140.71398941 140.71398941 140.71398941 140.71398941 140.71398941 140.71893497 140.72593251 140.73468124 140.74239049 140.74835952 140.75258064 140.75511963 140.75627881 140.75644450 140.75597173 140.75517674 140.75432333 140.75359615 140.75308967 140.75283410 140.75283410 140.75308967 140.75359615 140.75432333 140.75517674 140.75597173 140.75644450 140.75627881 140.75511963 140.75258064 140.74835952 140.74239049 140.73468124 140.72593251 140.71893497 140.71398941 140.71398941 140.71398941 140.71398941 140.71398941 140.71398941 140.71398941 140.71398941 140.71398941 140.71398941 140.72597751 140.73585868 140.74450006 140.75117511 140.75554979 140.75775248 140.75816421 140.75730746 140.75570652 140.75379497 140.75189555 140.75022832 140.74892406 140.74804304 140.74760217 140.74760217 140.74804304 140.74892406 140.75022832 140.75189555 140.75379497 140.75570652 140.75730746 140.75816421 140.75775248 140.75554979 140.75117511 140.74450006 140.73585868 140.72597751 140.71398941 140.71398941 140.71398941 140.71398941 140.71398941 140.71398941 140.71398941 140.71398941 140.71398941 140.72375391 140.73482203 140.74477531 140.75259290 140.75765874 140.75991797 140.75979759 140.75798040 140.75519300 140.75205246 140.74899932 140.74630446 140.74410915 140.74246851 140.74138829 140.74085445 140.74085445 140.74138829 140.74246851 140.74410915 140.74630446 140.74899932 140.75205246 140.75519300 140.75798040 140.75979759 140.75991797 140.75765874 140.75259290 140.74477531 140.73482203 140.72375391 140.71398941 140.71398941 140.71398941 140.71398941 140.71398941 140.71398941 140.71398941 140.72113066 140.73155932 140.74258699 140.75203315 140.75859155 140.76176031 140.76178121 140.75941267 140.75560955 140.75124965 140.74698128 140.74319375 140.74006626 140.73764194 140.73589337 140.73476861 140.73421993 140.73421993 140.73476861 140.73589337 140.73764194 140.74006626 140.74319375 140.74698128 140.75124965 140.75560955 140.75941267 140.76178121 140.76176031 140.75859155 140.75203315 140.74258699 140.73155932 140.72113066 140.71398941 140.71398941 140.71398941 140.71398941 140.71398941 140.71398941 140.72519919 140.73717690 140.74846034 140.75730164 140.76253908 140.76389702 140.76192813 140.75769436 140.75236412 140.74690384 140.74194323 140.73778975 140.73452007 140.73208273 140.73037746 140.72930395 140.72878692 140.72878692 140.72930395 140.73037746 140.73208273 140.73452007 140.73778975 140.74194323 140.74690384 140.75236412 140.75769436 140.76192813 140.76389702 140.76253908 140.75730164 140.74846034 140.73717690 140.72519919 140.71398941 140.71398941 140.71398941 140.71398941 140.71398941 140.71398941 140.72780030 140.74087553 140.75232488 140.76062828 140.76478913 140.76474946 140.76131862 140.75578593 140.74946041 140.74334737 140.73803730 140.73375896 140.73050385 140.72814842 140.72654026 140.72554614 140.72507266 140.72507266 140.72554614 140.72654026 140.72814842 140.73050385 140.73375896 140.73803730 140.74334737 140.74946041 140.75578593 140.76131862 140.76474946 140.76478913 140.76062828 140.75232488 140.74087553 140.72780030 140.71398941 140.71398941 140.71398941 140.71398941 140.71398941 140.71815702 140.72993512 140.74288386 140.75426050 140.76221949 140.76577411 140.76497745 140.76077923 140.75458851 140.74778216 140.74137687 140.73593404 140.73163524 140.72842445 140.72613971 140.72460198 140.72366177 140.72321705 140.72321705 140.72366177 140.72460198 140.72613971 140.72842445 140.73163524 140.73593404 140.74137687 140.74778216 140.75458851 140.76077923 140.76497745 140.76577411 140.76221949 140.75426050 140.74288386 140.72993512 140.71815702 140.71398941 140.71398941 140.71398941 140.71398941 140.71815702 140.72993512 140.74288386 140.75426050 140.76221949 140.76577411 140.76497745 140.76077923 140.75458851 140.74778216 140.74137687 140.73593404 140.73163524 140.72842445 140.72613971 140.72460198 140.72366177 140.72321705 140.72321705 140.72366177 140.72460198 140.72613971 140.72842445 140.73163524 140.73593404 140.74137687 140.74778216 140.75458851 140.76077923 140.76497745 140.76577411 140.76221949 140.75426050 140.74288386 140.72993512 140.71815702 140.71398941 140.71398941 140.71398941 140.71398941 140.71398941 140.72780030 140.74087553 140.75232488 140.76062828 140.76478913 140.76474946 140.76131862 140.75578593 140.74946041 140.74334737 140.73803730 140.73375896 140.73050385 140.72814842 140.72654026 140.72554614 140.72507266 140.72507266 140.72554614 140.72654026 140.72814842 140.73050385 140.73375896 140.73803730 140.74334737 140.74946041 140.75578593 140.76131862 140.76474946 140.76478913 140.76062828 140.75232488 140.74087553 140.72780030 140.71398941 140.71398941 140.71398941 140.71398941 140.71398941 140.71398941 140.72519919 140.73717690 140.74846034 140.75730164 140.76253908 140.76389702 140.76192813 140.75769436 140.75236412 140.74690384 140.74194323 140.73778975 140.73452007 140.73208273 140.73037746 140.72930395 140.72878692 140.72878692 140.72930395 140.73037746 140.73208273 140.73452007 140.73778975 140.74194323 140.74690384 140.75236412 140.75769436 140.76192813 140.76389702 140.76253908 140.75730164 140.74846034 140.73717690 140.72519919 140.71398941 140.71398941 140.71398941 140.71398941 140.71398941 140.71398941 140.72113066 140.73155932 140.74258699 140.75203315 140.75859155 140.76176031 140.76178121 140.75941267 140.75560955 140.75124965 140.74698128 140.74319375 140.74006626 140.73764194 140.73589337 140.73476861 140.73421993 140.73421993 140.73476861 140.73589337 140.73764194 140.74006626 140.74319375 140.74698128 140.75124965 140.75560955 140.75941267 140.76178121 140.76176031 140.75859155 140.75203315 140.74258699 140.73155932 140.72113066 140.71398941 140.71398941 140.71398941 140.71398941 140.71398941 140.71398941 140.71398941 140.72375391 140.73482203 140.74477531 140.75259290 140.75765874 140.75991797 140.75979759 140.75798040 140.75519300 140.75205246 140.74899932 140.74630446 140.74410915 140.74246851 140.74138829 140.74085445 140.74085445 140.74138829 140.74246851 140.74410915 140.74630446 140.74899932 140.75205246 140.75519300 140.75798040 140.75979759 140.75991797 140.75765874 140.75259290 140.74477531 140.73482203 140.72375391 140.71398941 140.71398941 140.71398941 140.71398941 140.71398941 140.71398941 140.71398941 140.71398941 140.71398941 140.72597751 140.73585868 140.74450006 140.75117511 140.75554979 140.75775248 140.75816421 140.75730746 140.75570652 140.75379497 140.75189555 140.75022832 140.74892406 140.74804304 140.74760217 140.74760217 140.74804304 140.74892406 140.75022832 140.75189555 140.75379497 140.75570652 140.75730746 140.75816421 140.75775248 140.75554979 140.75117511 140.74450006 140.73585868 140.72597751 140.71398941 140.71398941 140.71398941 140.71398941 140.71398941 140.71398941 140.71398941 140.71398941 140.71398941 140.71398941 140.71893497 140.72593251 140.73468124 140.74239049 140.74835952 140.75258064 140.75511963 140.75627881 140.75644450 140.75597173 140.75517674 140.75432333 140.75359615 140.75308967 140.75283410 140.75283410 140.75308967 140.75359615 140.75432333 140.75517674 140.75597173 140.75644450 140.75627881 140.75511963 140.75258064 140.74835952 140.74239049 140.73468124 140.72593251 140.71893497 140.71398941 140.71398941 140.71398941 140.71398941 140.71398941 140.71398941 140.71398941 140.71398941 140.71398941 140.71398941 140.71398941 140.71398941 140.72381512 140.73203244 140.73866439 140.74427682 140.74845568 140.75134954 140.75320330 140.75421198 140.75462960 140.75473667 140.75475022 140.75475968 140.75476945 140.75476945 140.75475968 140.75475022 140.75473667 140.75462960 140.75421198 140.75320330 140.75134954 140.74845568 140.74427682 140.73866439 140.73203244 140.72381512 140.71398941 140.71398941 140.71398941 140.71398941 140.71398941 140.71398941 140.71398941 140.71398941 140.71398941 140.71398941 140.71398941 140.71398941 140.71398941 140.71398941 140.71398941 140.72172701 140.72722942 140.73363039 140.73863274 140.74265713 140.74582426 140.74803618 140.74947027 140.75044727 140.75123005 140.75183059 140.75215483 140.75215483 140.75183059 140.75123005 140.75044727 140.74947027 140.74803618 140.74582426 140.74265713 140.73863274 140.73363039 140.72722942 140.72172701 140.71398941 140.71398941 140.71398941 140.71398941 140.71398941 140.71398941 140.71398941 140.71398941 140.71398941 140.71398941 140.71398941 140.71398941 140.71398941 140.71398941 140.71398941 140.71398941 140.71398941 140.71398941 140.72224878 140.72681221 140.73131298 140.73528804 140.73811283 140.74002846 140.74151715 140.74301736 140.74425803 140.74491897 140.74491897 140.74425803 140.74301736 140.74151715 140.74002846 140.73811283 140.73528804 140.73131298 140.72681221 140.72224878 140.71398941 140.71398941 140.71398941 140.71398941 140.71398941 140.71398941 140.71398941 140.71398941 140.71398941 140.71398941 140.71398941 140.71398941 140.71398941 140.71398941 140.71398941 140.71398941 140.71398941 140.71398941 140.71398941 140.71398941 140.71398941 140.71398941 140.71955239 140.72369870 140.72611675 140.72763225 140.72899844 140.73142416 140.73345118 140.73444066 140.73444066 140.73345118 140.73142416 140.72899844 140.72763225 140.72611675 140.72369870 140.71955239 140.71398941 140.71398941 140.71398941 140.71398941 140.71398941 140.71398941 140.71398941 140.71398941 140.71398941 140.71398941 140.71398941 140.71398941 140.71398941 140.71398941 140.71398941 140.71398941 140.71398941 140.71398941 140.71398941 140.71398941 140.71398941 140.71398941 140.71398941 140.71398941 140.71398941 140.71398941 140.71398941 140.71398941 140.71398941 140.71925786 140.72217573 140.72326450 140.72326450 140.72217573 140.71925786 140.71398941 140.71398941 140.71398941 140.71398941 140.71398941 140.71398941 140.71398941 140.71398941 140.71398941 140.71398941 140.71398941 140.71398941 140.71398941 140.71398941 140.71398941 140.71398941 140.71398941 140.71398941 140.71398941 140.71398941 140.71398941 140.71398941 140.71398941 140.71398941 140.71398941 140.71398941 140.71398941 140.71398941 140.71398941 140.71398941 140.71398941 140.71398941 140.71398941 140.71398941 140.71398941 140.71398941 140.71398941 140.71398941 140.71398941 140.71398941 140.71398941 140.71398941 140.71398941 140.71398941 140.71398941 140.71398941 140.71398941 140.71398941 140.71398941 140.71398941 140.71398941 140.71398941 140.71398941 140.71398941 140.71398941 140.71398941 140.71398941 140.71398941 140.71398941 140.71398941 140.71398941 140.71398941 140.71398941 140.71398941 140.71398941 140.71398941 140.71398941 140.71398941 140.71398941 140.71398941 140.71398941 140.71398941 140.71398941 140.71398941 140.71398941 140.71398941 140.71398941 140.71398941 140.71398941 140.71398941 140.71398941 140.71398941 140.71398941 140.71398941 140.71398941 140.71398941 140.71398941 140.71398941 140.71398941 140.71398941 140.71398941 140.71398941 140.71398941 140.71398941 140.71398941 140.71398941 140.71398941 140.71398941 140.71398941 140.71398941 140.71398941 140.71398941 140.71398941 140.71398941 140.71398941 140.71398941 140.71398941 140.71398941 140.71398941 140.71398941 140.71398941 140.71398941 140.71398941 140.71398941 140.71398941 140.71398941 140.71398941 140.71398941 140.71398941 140.71398941 140.71398941 140.71398941 140.71398941 140.71398941 140.71398941 140.71398941 140.71398941 140.71398941 140.71398941 140.71398941 140.71398941 140.71398941 140.71398941 140.71398941 140.71398941 140.71398941 140.71398941 140.71398941 140.71398941 140.71398941 140.71398941 140.71398941 140.71398941 140.71398941 140.71398941 140.71398941 140.71398941 140.71398941 140.71398941 140.71398941 140.71398941 140.71398941 140.71398941 140.71398941 140.71398941 140.71398941 140.71398941 140.71398941 140.71398941 140.71398941 140.71398941 140.71398941 140.71398941 140.71398941 140.71398941 140.71398941 140.71398941 140.71398941 140.71398941 140.71398941 140.71398941 140.71398941 140.71398941 140.71398941 140.71398941 140.71398941 140.71398941 140.71398941 140.71398941 140.71398941 140.71398941 140.71398941 140.71398941 140.71398941 140.71398941 140.71398941 140.71398941 140.71398941 140.71398941 140.71398941 140.71398941 140.71398941 140.71398941 140.71398941 140.71398941 140.71398941 140.71398941 140.71398941 140.71398941 140.71398941 140.71398941 140.71398941 140.71398941 140.71398941 140.71398941 140.71398941 140.71398941 140.71398941 140.71398941 140.71398941 140.71398941 140.71398941 140.71398941 140.71398941 140.71398941 140.71398941 140.71398941 140.71398941 140.71398941 140.71398941 140.71398941 140.71398941 140.71398941 140.71398941 140.71398941 140.71398941 140.71398941 140.71398941 140.71398941 140.71398941 140.71398941 140.71398941 140.71398941 140.71398941 140.71398941 140.71398941 140.71398941 140.71398941 140.71398941 140.71398941 140.71398941 140.71398941 140.71398941 140.71398941 140.71398941 140.71398941 140.71398941 140.71398941 140.71398941 140.71398941 140.71398941 140.71398941 140.71398941 140.71398941 140.71398941 140.71398941 140.71398941 140.71398941 140.71398941 140.71398941 140.71398941 140.71398941 140.71398941 140.71398941 140.71398941 140.71398941 140.71398941 140.71398941 140.71398941 140.71398941 140.71398941 140.71398941 140.71398941 140.71398941 140.71398941 140.71398941 140.71398941 140.71398941 140.71398941 140.71398941 140.71398941 140.71398941 140.71398941 140.71398941 140.71398941 140.71398941 140.71398941 140.71398941 140.71398941 140.71398941 140.71398941 140.71398941 140.71398941 140.71398941 140.71398941 140.71398941 140.71398941 140.71398941 140.71398941 140.71398941 140.71398941 140.71398941 140.71398941 140.71398941 140.71398941 140.71398941 140.71398941 140.71398941 140.71398941 140.71398941 140.71398941 140.71398941 140.71398941 140.71398941 140.71398941 140.71398941 140.71398941 140.71398941 140.71398941 140.71398941 140.71398941 140.71398941 140.71398941 140.71398941 140.71398941 140.71398941 140.71398941 140.71398941 140.71398941 140.71398941 140.71398941 140.71398941 140.71398941 140.71398941 140.71398941 140.71398941 140.71398941 