# vtk DataFile Version 3.0
VTK - Matlab export
ASCII
DATASET STRUCTURED_POINTS
DIMENSIONS 40 40 1
SPACING 1 1 1
ORIGIN 0 0 0
POINT_DATA 1600
SCALARS lambda-2 float 1
LOOKUP_TABLE default
8.35311101 8.35311101 8.35311101 8.35311101 8.35311101 8.35311101 8.35311101 8.35311101 8.35311101 8.35311101 8.35311101 8.35311101 8.35311101 8.35311101 8.35311101 8.35311101 8.35311101 8.35311101 8.35311101 8.35311101 8.35311101 8.35311101 8.35311101 8.35311101 8.35311101 8.35311101 8.35311101 8.35311101 8.35311101 8.35311101 8.35311101 8.35311101 8.35311101 8.35311101 8.35311101 8.35311101 8.35311101 8.35311101 8.35311101 8.35311101 8.35311101 8.35311101 8.35311101 8.35311101 8.35311101 8.35311101 8.35311101 8.35311101 8.35311101 8.35311101 8.35311101 8.35311101 8.35311101 8.35311101 8.35311101 8.35311101 8.35311101 8.35311101 8.35311101 8.35311101 8.35311101 8.35311101 8.35311101 8.35311101 8.35311101 8.35311101 8.35311101 8.35311101 8.35311101 8.35311101 8.35311101 8.35311101 8.35311101 8.35311101 8.35311101 8.35311101 8.35311101 8.35311101 8.35311101 8.35311101 8.35311101 8.35311101 8.35311101 8.35311101 8.35311101 8.35311101 8.35311101 8.35311101 8.35311101 8.35311101 8.35311101 8.35311101 8.35311101 8.35311101 8.35311101 8.35311101 8.35311101 8.35311101 8.35311101 8.35311101 8.35311101 8.35311101 8.35311101 8.35311101 8.35311101 8.35311101 8.35311101 8.35311101 8.35311101 8.35311101 8.35311101 8.35311101 8.35311101 8.35311101 8.35311101 8.35311101 8.35311101 8.35311101 8.35311101 8.35311101 8.35311101 8.35311101 8.35311101 8.35311101 8.35311101 8.35311101 8.35311101 8.35311101 8.35311101 8.35311101 8.35311101 8.35311101 8.35311101 8.35311101 8.35311101 8.35311101 8.35311101 8.35311101 8.35311101 8.35311101 8.35311101 8.35311101 8.35311101 8.35311101 8.35311101 8.35311101 8.35311101 8.35311101 8.35311101 8.35311101 8.35311101 8.35311101 8.35311101 8.35311101 8.35311101 8.35311101 8.35311101 8.35311101 8.35311101 8.35311101 8.35311101 8.35311101 8.35311101 8.35311101 8.35311101 8.35311101 8.35311101 8.35311101 8.35311101 8.35311101 8.35311101 8.35311101 8.35311101 8.35311101 8.35311101 8.35311101 8.35311101 8.35311101 8.35311101 8.35311101 8.35311101 8.35311101 8.35311101 8.35311101 8.35311101 8.35311101 8.35311101 8.35311101 8.35311101 8.35311101 8.35311101 8.35311101 8.35311101 8.35311101 8.35311101 8.35311101 8.35311101 8.35311101 8.35311101 8.35311101 8.35311101 8.35311101 8.35311101 8.35311101 8.35311101 8.35311101 8.35311101 8.35311101 8.35311101 8.35311101 8.35311101 8.35311101 8.35311101 8.35311101 8.35311101 8.35311101 8.35311101 8.35311101 8.35311101 8.35311101 8.35311101 8.35311101 8.35311101 8.35311101 8.35311101 8.35311101 8.35311101 8.35311101 8.35311101 8.35311101 8.35311101 8.35311101 8.35311101 8.35311101 8.35311101 8.35311101 8.35311101 8.35311101 8.35311101 8.35311101 8.35311101 8.35311101 8.35311101 8.35311101 8.35311101 8.35311101 8.35311101 8.35311101 8.35311101 8.35311101 8.35311101 8.35311101 8.35311101 8.35311101 8.35311101 8.35311101 8.35311101 8.35311101 8.35311101 8.35311101 8.35311101 8.35311101 8.35311101 8.35311101 8.35311101 8.35311101 8.35311101 8.35311101 8.35311101 8.35311101 8.35311101 8.35311101 8.35311101 8.35311101 8.35311101 8.35311101 8.35311101 8.35311101 8.35311101 8.35311101 8.35311101 8.35311101 8.35311101 8.35311101 8.35311101 8.35311101 8.35311101 8.35311101 8.35311101 8.35311101 8.35311101 8.35311101 8.35311101 8.35311101 8.35311101 8.35311101 8.35311101 8.35311101 8.35311101 8.35311101 8.35311101 8.35311101 8.35311101 8.35311101 8.35311101 8.35311101 8.35311101 8.35311101 8.35311101 8.35311101 8.35311101 8.35311101 8.35311101 8.35311101 8.35311101 8.35311101 8.35311101 8.35311101 8.35311101 8.35311101 8.35311101 8.35311101 8.35311101 8.35311101 8.35311101 8.35311101 8.35311101 8.35311101 8.35311101 8.35311101 8.35311101 8.35311101 8.35311101 8.35311101 8.35311101 8.35311101 8.35311101 8.32254560 8.30195077 8.29311148 8.29311148 8.30195077 8.32254560 8.35311101 8.35311101 8.35311101 8.35311101 8.35311101 8.35311101 8.35311101 8.35311101 8.35311101 8.35311101 8.35311101 8.35311101 8.35311101 8.35311101 8.35311101 8.35311101 8.35311101 8.35311101 8.35311101 8.35311101 8.35311101 8.35311101 8.35311101 8.35311101 8.35311101 8.35311101 8.35311101 8.35311101 8.35311101 8.32168224 8.29858903 8.28847021 8.28580780 8.28318364 8.27075784 8.25758709 8.25061028 8.25061028 8.25758709 8.27075784 8.28318364 8.28580780 8.28847021 8.29858903 8.32168224 8.35311101 8.35311101 8.35311101 8.35311101 8.35311101 8.35311101 8.35311101 8.35311101 8.35311101 8.35311101 8.35311101 8.35311101 8.35311101 8.35311101 8.35311101 8.35311101 8.35311101 8.35311101 8.35311101 8.35311101 8.35311101 8.35311101 8.30768831 8.28704034 8.26978954 8.25724240 8.25368336 8.25628727 8.25922274 8.25791589 8.25456929 8.25256228 8.25256228 8.25456929 8.25791589 8.25922274 8.25628727 8.25368336 8.25724240 8.26978954 8.28704034 8.30768831 8.35311101 8.35311101 8.35311101 8.35311101 8.35311101 8.35311101 8.35311101 8.35311101 8.35311101 8.35311101 8.35311101 8.35311101 8.35311101 8.35311101 8.35311101 8.35311101 8.35311101 8.35311101 8.31088030 8.28667315 8.26295447 8.25380240 8.25317168 8.25658886 8.26343265 8.27179794 8.27887853 8.28306722 8.28512103 8.28613587 8.28613587 8.28512103 8.28306722 8.27887853 8.27179794 8.26343265 8.25658886 8.25317168 8.25380240 8.26295447 8.28667315 8.31088030 8.35311101 8.35311101 8.35311101 8.35311101 8.35311101 8.35311101 8.35311101 8.35311101 8.35311101 8.35311101 8.35311101 8.35311101 8.35311101 8.35311101 8.35311101 8.30318955 8.26906941 8.25458116 8.25270169 8.26112902 8.27377298 8.28609233 8.29684246 8.30561616 8.31209599 8.31641930 8.31914890 8.32058801 8.32058801 8.31914890 8.31641930 8.31209599 8.30561616 8.29684246 8.28609233 8.27377298 8.26112902 8.25270169 8.25458116 8.26906941 8.30318955 8.35311101 8.35311101 8.35311101 8.35311101 8.35311101 8.35311101 8.35311101 8.35311101 8.35311101 8.35311101 8.35311101 8.35311101 8.32539275 8.29322525 8.26321675 8.25183492 8.25809502 8.27345645 8.29120449 8.30681814 8.31856054 8.32680683 8.33241997 8.33614462 8.33860067 8.34020359 8.34105232 8.34105232 8.34020359 8.33860067 8.33614462 8.33241997 8.32680683 8.31856054 8.30681814 8.29120449 8.27345645 8.25809502 8.25183492 8.26321675 8.29322525 8.32539275 8.35311101 8.35311101 8.35311101 8.35311101 8.35311101 8.35311101 8.35311101 8.35311101 8.35311101 8.35311101 8.29233194 8.25960461 8.25139003 8.26269415 8.28341264 8.30429069 8.32082632 8.33217146 8.33928077 8.34355701 8.34610167 8.34763710 8.34861372 8.34925105 8.34958715 8.34958715 8.34925105 8.34861372 8.34763710 8.34610167 8.34355701 8.33928077 8.33217146 8.32082632 8.30429069 8.28341264 8.26269415 8.25139003 8.25960461 8.29233194 8.35311101 8.35311101 8.35311101 8.35311101 8.35311101 8.35311101 8.35311101 8.35311101 8.35311101 8.30058820 8.25971678 8.24907549 8.26323200 8.28802435 8.31163393 8.32883670 8.33951425 8.34550401 8.34868035 8.35033920 8.35121436 8.35169700 8.35199152 8.35218218 8.35228209 8.35228209 8.35218218 8.35199152 8.35169700 8.35121436 8.35033920 8.34868035 8.34550401 8.33951425 8.32883670 8.31163393 8.28802435 8.26323200 8.24907549 8.25971678 8.30058820 8.35311101 8.35311101 8.35311101 8.35311101 8.35311101 8.35311101 8.35311101 8.30920803 8.26314857 8.24419254 8.25688596 8.28536137 8.31287021 8.33199334 8.34288081 8.34831987 8.35082879 8.35194957 8.35245615 8.35269342 8.35281315 8.35288325 8.35292822 8.35295160 8.35295160 8.35292822 8.35288325 8.35281315 8.35269342 8.35245615 8.35194957 8.35082879 8.34831987 8.34288081 8.33199334 8.31287021 8.28536137 8.25688596 8.24419254 8.26314857 8.30920803 8.35311101 8.35311101 8.35311101 8.35311101 8.35311101 8.35311101 8.28747405 8.24563019 8.24473301 8.27290189 8.30613174 8.33012330 8.34325815 8.34923187 8.35162967 8.35252540 8.35285536 8.35298227 8.35303463 8.35305875 8.35307233 8.35308097 8.35308541 8.35308541 8.35308097 8.35307233 8.35305875 8.35303463 8.35298227 8.35285536 8.35252540 8.35162967 8.34923187 8.34325815 8.33012330 8.30613174 8.27290189 8.24473301 8.24563019 8.28747405 8.35311101 8.35311101 8.35311101 8.35311101 8.35311101 8.35311101 8.27699135 8.24074084 8.25207728 8.28757684 8.32014111 8.33956561 8.34835638 8.35161462 8.35266121 8.35296990 8.35306003 8.35308846 8.35309859 8.35310281 8.35310511 8.35310657 8.35310731 8.35310731 8.35310657 8.35310511 8.35310281 8.35309859 8.35308846 8.35306003 8.35296990 8.35266121 8.35161462 8.34835638 8.33956561 8.32014111 8.28757684 8.25207728 8.24074084 8.27699135 8.35311101 8.35311101 8.35311101 8.35311101 8.35311101 8.32756803 8.26704839 8.23913217 8.25746134 8.29562490 8.32673275 8.34343928 8.35016847 8.35233792 8.35292494 8.35306544 8.35309778 8.35310592 8.35310837 8.35310929 8.35310979 8.35311013 8.35311031 8.35311031 8.35311013 8.35310979 8.35310929 8.35310837 8.35310592 8.35309778 8.35306544 8.35292494 8.35233792 8.35016847 8.34343928 8.32673275 8.29562490 8.25746134 8.23913217 8.26704839 8.32756803 8.35311101 8.35311101 8.35311101 8.35311101 8.32756803 8.26704839 8.23913217 8.25746134 8.29562490 8.32673275 8.34343928 8.35016847 8.35233792 8.35292494 8.35306544 8.35309778 8.35310592 8.35310837 8.35310929 8.35310979 8.35311013 8.35311031 8.35311031 8.35311013 8.35310979 8.35310929 8.35310837 8.35310592 8.35309778 8.35306544 8.35292494 8.35233792 8.35016847 8.34343928 8.32673275 8.29562490 8.25746134 8.23913217 8.26704839 8.32756803 8.35311101 8.35311101 8.35311101 8.35311101 8.35311101 8.27699135 8.24074084 8.25207728 8.28757684 8.32014111 8.33956561 8.34835638 8.35161462 8.35266121 8.35296990 8.35306003 8.35308846 8.35309859 8.35310281 8.35310511 8.35310657 8.35310731 8.35310731 8.35310657 8.35310511 8.35310281 8.35309859 8.35308846 8.35306003 8.35296990 8.35266121 8.35161462 8.34835638 8.33956561 8.32014111 8.28757684 8.25207728 8.24074084 8.27699135 8.35311101 8.35311101 8.35311101 8.35311101 8.35311101 8.35311101 8.28747405 8.24563019 8.24473301 8.27290189 8.30613174 8.33012330 8.34325815 8.34923187 8.35162967 8.35252540 8.35285536 8.35298227 8.35303463 8.35305875 8.35307233 8.35308097 8.35308541 8.35308541 8.35308097 8.35307233 8.35305875 8.35303463 8.35298227 8.35285536 8.35252540 8.35162967 8.34923187 8.34325815 8.33012330 8.30613174 8.27290189 8.24473301 8.24563019 8.28747405 8.35311101 8.35311101 8.35311101 8.35311101 8.35311101 8.35311101 8.30920803 8.26314857 8.24419254 8.25688596 8.28536137 8.31287021 8.33199334 8.34288081 8.34831987 8.35082879 8.35194957 8.35245615 8.35269342 8.35281315 8.35288325 8.35292822 8.35295160 8.35295160 8.35292822 8.35288325 8.35281315 8.35269342 8.35245615 8.35194957 8.35082879 8.34831987 8.34288081 8.33199334 8.31287021 8.28536137 8.25688596 8.24419254 8.26314857 8.30920803 8.35311101 8.35311101 8.35311101 8.35311101 8.35311101 8.35311101 8.35311101 8.30058820 8.25971678 8.24907549 8.26323200 8.28802435 8.31163393 8.32883670 8.33951425 8.34550401 8.34868035 8.35033920 8.35121436 8.35169700 8.35199152 8.35218218 8.35228209 8.35228209 8.35218218 8.35199152 8.35169700 8.35121436 8.35033920 8.34868035 8.34550401 8.33951425 8.32883670 8.31163393 8.28802435 8.26323200 8.24907549 8.25971678 8.30058820 8.35311101 8.35311101 8.35311101 8.35311101 8.35311101 8.35311101 8.35311101 8.35311101 8.35311101 8.29233194 8.25960461 8.25139003 8.26269415 8.28341264 8.30429069 8.32082632 8.33217146 8.33928077 8.34355701 8.34610167 8.34763710 8.34861372 8.34925105 8.34958715 8.34958715 8.34925105 8.34861372 8.34763710 8.34610167 8.34355701 8.33928077 8.33217146 8.32082632 8.30429069 8.28341264 8.26269415 8.25139003 8.25960461 8.29233194 8.35311101 8.35311101 8.35311101 8.35311101 8.35311101 8.35311101 8.35311101 8.35311101 8.35311101 8.35311101 8.32539275 8.29322525 8.26321675 8.25183492 8.25809502 8.27345645 8.29120449 8.30681814 8.31856054 8.32680683 8.33241997 8.33614462 8.33860067 8.34020359 8.34105232 8.34105232 8.34020359 8.33860067 8.33614462 8.33241997 8.32680683 8.31856054 8.30681814 8.29120449 8.27345645 8.25809502 8.25183492 8.26321675 8.29322525 8.32539275 8.35311101 8.35311101 8.35311101 8.35311101 8.35311101 8.35311101 8.35311101 8.35311101 8.35311101 8.35311101 8.35311101 8.35311101 8.30318955 8.26906941 8.25458116 8.25270169 8.26112902 8.27377298 8.28609233 8.29684246 8.30561616 8.31209599 8.31641930 8.31914890 8.32058801 8.32058801 8.31914890 8.31641930 8.31209599 8.30561616 8.29684246 8.28609233 8.27377298 8.26112902 8.25270169 8.25458116 8.26906941 8.30318955 8.35311101 8.35311101 8.35311101 8.35311101 8.35311101 8.35311101 8.35311101 8.35311101 8.35311101 8.35311101 8.35311101 8.35311101 8.35311101 8.35311101 8.35311101 8.31088030 8.28667315 8.26295447 8.25380240 8.25317168 8.25658886 8.26343265 8.27179794 8.27887853 8.28306722 8.28512103 8.28613587 8.28613587 8.28512103 8.28306722 8.27887853 8.27179794 8.26343265 8.25658886 8.25317168 8.25380240 8.26295447 8.28667315 8.31088030 8.35311101 8.35311101 8.35311101 8.35311101 8.35311101 8.35311101 8.35311101 8.35311101 8.35311101 8.35311101 8.35311101 8.35311101 8.35311101 8.35311101 8.35311101 8.35311101 8.35311101 8.35311101 8.30768831 8.28704034 8.26978954 8.25724240 8.25368336 8.25628727 8.25922274 8.25791589 8.25456929 8.25256228 8.25256228 8.25456929 8.25791589 8.25922274 8.25628727 8.25368336 8.25724240 8.26978954 8.28704034 8.30768831 8.35311101 8.35311101 8.35311101 8.35311101 8.35311101 8.35311101 8.35311101 8.35311101 8.35311101 8.35311101 8.35311101 8.35311101 8.35311101 8.35311101 8.35311101 8.35311101 8.35311101 8.35311101 8.35311101 8.35311101 8.35311101 8.35311101 8.32168224 8.29858903 8.28847021 8.28580780 8.28318364 8.27075784 8.25758709 8.25061028 8.25061028 8.25758709 8.27075784 8.28318364 8.28580780 8.28847021 8.29858903 8.32168224 8.35311101 8.35311101 8.35311101 8.35311101 8.35311101 8.35311101 8.35311101 8.35311101 8.35311101 8.35311101 8.35311101 8.35311101 8.35311101 8.35311101 8.35311101 8.35311101 8.35311101 8.35311101 8.35311101 8.35311101 8.35311101 8.35311101 8.35311101 8.35311101 8.35311101 8.35311101 8.35311101 8.35311101 8.35311101 8.32254560 8.30195077 8.29311148 8.29311148 8.30195077 8.32254560 8.35311101 8.35311101 8.35311101 8.35311101 8.35311101 8.35311101 8.35311101 8.35311101 8.35311101 8.35311101 8.35311101 8.35311101 8.35311101 8.35311101 8.35311101 8.35311101 8.35311101 8.35311101 8.35311101 8.35311101 8.35311101 8.35311101 8.35311101 8.35311101 8.35311101 8.35311101 8.35311101 8.35311101 8.35311101 8.35311101 8.35311101 8.35311101 8.35311101 8.35311101 8.35311101 8.35311101 8.35311101 8.35311101 8.35311101 8.35311101 8.35311101 8.35311101 8.35311101 8.35311101 8.35311101 8.35311101 8.35311101 8.35311101 8.35311101 8.35311101 8.35311101 8.35311101 8.35311101 8.35311101 8.35311101 8.35311101 8.35311101 8.35311101 8.35311101 8.35311101 8.35311101 8.35311101 8.35311101 8.35311101 8.35311101 8.35311101 8.35311101 8.35311101 8.35311101 8.35311101 8.35311101 8.35311101 8.35311101 8.35311101 8.35311101 8.35311101 8.35311101 8.35311101 8.35311101 8.35311101 8.35311101 8.35311101 8.35311101 8.35311101 8.35311101 8.35311101 8.35311101 8.35311101 8.35311101 8.35311101 8.35311101 8.35311101 8.35311101 8.35311101 8.35311101 8.35311101 8.35311101 8.35311101 8.35311101 8.35311101 8.35311101 8.35311101 8.35311101 8.35311101 8.35311101 8.35311101 8.35311101 8.35311101 8.35311101 8.35311101 8.35311101 8.35311101 8.35311101 8.35311101 8.35311101 8.35311101 8.35311101 8.35311101 8.35311101 8.35311101 8.35311101 8.35311101 8.35311101 8.35311101 8.35311101 8.35311101 8.35311101 8.35311101 8.35311101 8.35311101 8.35311101 8.35311101 8.35311101 8.35311101 8.35311101 8.35311101 8.35311101 8.35311101 8.35311101 8.35311101 8.35311101 8.35311101 8.35311101 8.35311101 8.35311101 8.35311101 8.35311101 8.35311101 8.35311101 8.35311101 8.35311101 8.35311101 8.35311101 8.35311101 8.35311101 8.35311101 8.35311101 8.35311101 8.35311101 8.35311101 8.35311101 8.35311101 8.35311101 8.35311101 8.35311101 8.35311101 8.35311101 8.35311101 8.35311101 8.35311101 8.35311101 8.35311101 8.35311101 8.35311101 8.35311101 8.35311101 8.35311101 8.35311101 8.35311101 8.35311101 8.35311101 8.35311101 8.35311101 8.35311101 8.35311101 8.35311101 8.35311101 8.35311101 8.35311101 8.35311101 8.35311101 8.35311101 8.35311101 8.35311101 8.35311101 8.35311101 8.35311101 8.35311101 8.35311101 8.35311101 8.35311101 8.35311101 8.35311101 8.35311101 8.35311101 8.35311101 8.35311101 8.35311101 8.35311101 8.35311101 8.35311101 8.35311101 8.35311101 8.35311101 8.35311101 8.35311101 8.35311101 8.35311101 8.35311101 8.35311101 8.35311101 8.35311101 8.35311101 8.35311101 8.35311101 8.35311101 8.35311101 8.35311101 8.35311101 8.35311101 8.35311101 8.35311101 8.35311101 8.35311101 8.35311101 8.35311101 8.35311101 8.35311101 8.35311101 8.35311101 8.35311101 8.35311101 8.35311101 8.35311101 8.35311101 8.35311101 8.35311101 8.35311101 8.35311101 8.35311101 8.35311101 8.35311101 8.35311101 8.35311101 8.35311101 8.35311101 8.35311101 8.35311101 8.35311101 8.35311101 8.35311101 8.35311101 8.35311101 8.35311101 8.35311101 8.35311101 8.35311101 8.35311101 8.35311101 8.35311101 8.35311101 8.35311101 8.35311101 8.35311101 8.35311101 8.35311101 8.35311101 8.35311101 8.35311101 8.35311101 8.35311101 8.35311101 8.35311101 8.35311101 8.35311101 8.35311101 8.35311101 8.35311101 8.35311101 8.35311101 8.35311101 8.35311101 8.35311101 8.35311101 8.35311101 8.35311101 8.35311101 8.35311101 8.35311101 8.35311101 8.35311101 8.35311101 8.35311101 8.35311101 8.35311101 8.35311101 8.35311101 8.35311101 8.35311101 8.35311101 8.35311101 8.35311101 8.35311101 8.35311101 8.35311101 8.35311101 8.35311101 8.35311101 8.35311101 8.35311101 8.35311101 8.35311101 8.35311101 8.35311101 8.35311101 8.35311101 8.35311101 8.35311101 8.35311101 8.35311101 8.35311101 8.35311101 8.35311101 8.35311101 8.35311101 8.35311101 8.35311101 