# vtk DataFile Version 3.0
VTK - Matlab export
ASCII
DATASET STRUCTURED_POINTS
DIMENSIONS 40 40 1
SPACING 1 1 1
ORIGIN 0 0 0
POINT_DATA 1600
SCALARS Temperature float 1
LOOKUP_TABLE default
200.00000000 200.00000000 200.00000000 200.00000000 200.00000000 200.00000000 200.00000000 200.00000000 200.00000000 200.00000000 200.00000000 200.00000000 200.00000000 200.00000000 200.00000000 200.00000000 200.00000000 200.00000000 200.00000000 200.00000000 200.00000000 200.00000000 200.00000000 200.00000000 200.00000000 200.00000000 200.00000000 200.00000000 200.00000000 200.00000000 200.00000000 200.00000000 200.00000000 200.00000000 200.00000000 200.00000000 200.00000000 200.00000000 200.00000000 200.00000000 200.00000000 200.00000000 200.00000000 200.00000000 200.00000000 200.00000000 200.00000000 200.00000000 200.00000000 200.00000000 200.00000000 200.00000000 200.00000000 200.00000000 200.00000000 200.00000000 200.00000000 200.00000000 200.00000000 200.00000000 200.00000000 200.00000000 200.00000000 200.00000000 200.00000000 200.00000000 200.00000000 200.00000000 200.00000000 200.00000000 200.00000000 200.00000000 200.00000000 200.00000000 200.00000000 200.00000000 200.00000000 200.00000000 200.00000000 200.00000000 200.00000000 200.00000000 200.00000000 200.00000000 200.00000000 200.00000000 200.00000000 200.00000000 200.00000000 200.00000000 200.00000000 200.00000000 200.00000000 200.00000000 200.00000000 200.00000000 200.00000000 200.00000000 200.00000000 200.00000000 200.00000000 200.00000000 200.00000000 200.00000000 200.00000000 200.00000000 200.00000000 200.00000000 200.00000000 200.00000000 200.00000000 200.00000000 200.00000000 200.00000000 200.00000000 200.00000000 200.00000000 200.00000000 200.00000000 200.00000000 200.00000000 200.00000000 200.00000000 200.00000000 200.00000000 200.00000000 200.00000000 200.00000000 200.00000000 200.00000000 200.00000000 200.00000000 200.00000000 200.00000000 200.00000000 200.00000000 200.00000000 200.00000000 200.00000000 200.00000000 200.00000000 200.00000000 200.00000000 200.00000000 200.00000000 200.00000000 200.00000000 200.00000000 200.00000000 200.00000000 200.00000000 200.00000000 200.00000000 200.00000000 200.00000000 200.00000000 200.00000000 200.00000000 200.00000000 200.00000000 200.00000000 200.00000000 200.00000000 200.00000000 200.00000000 200.00000000 200.00000000 200.00000000 200.00000000 200.00000000 200.00000000 200.00000000 200.00000000 200.00000000 200.00000000 200.00000000 200.00000000 200.00000000 200.00000000 200.00000000 200.00000000 200.00000000 200.00000000 200.00000000 200.00000000 200.00000000 200.00000000 200.00000000 200.00000000 200.00000000 200.00000000 200.00000000 200.00000000 200.00000000 200.00000000 200.00000000 200.00000000 200.00000000 200.00000000 200.00000000 200.00000000 200.00000000 200.00000000 200.00000000 200.00000000 200.00000000 200.00000000 200.00000000 200.00000000 200.00000000 200.00000000 200.00000000 200.00000000 200.00000000 200.00000000 200.00000000 200.00000000 200.00000000 200.00000000 200.00000000 200.00000000 200.00000000 200.00000000 200.00000000 200.00000000 200.00000000 200.00000000 200.00000000 200.00000000 200.00000000 200.00000000 200.00000000 200.00000000 200.00000000 200.00000000 200.00000000 200.00000000 200.00000000 200.00000000 200.00000000 200.00000000 200.00000000 200.00000000 200.00000000 200.00000000 200.00000000 200.00000000 200.00000000 200.00000000 200.00000000 200.00000000 200.00000000 200.00000000 200.00000000 200.00000000 200.00000000 200.00000000 200.00000000 200.00000000 200.00000000 200.00000000 200.00000000 200.00000000 200.00000000 200.00000000 200.00000000 200.00000000 200.00000000 200.00000000 200.00000000 200.00000000 200.00000000 200.00000000 200.00000000 200.00000000 200.00000000 200.00000000 200.00000000 200.00000000 200.00000000 200.00000000 200.00000000 200.00000000 200.00000000 200.00000000 200.00000000 200.00000000 200.00000000 200.00000000 200.00000000 200.00000000 200.00000000 200.00000000 200.00000000 200.00000000 200.00000000 200.00000000 200.00000000 200.00000000 200.00000000 200.00000000 200.00000000 200.00000000 200.00000000 200.00000000 200.00000000 200.00000000 200.00000000 200.00000000 200.00000000 200.00000000 200.00000000 200.00000000 200.00000000 200.00000000 200.00000000 200.00000000 200.00000000 200.00000000 200.00000000 200.00000000 200.00000000 200.00000000 200.00000000 200.00000000 200.00000000 200.00000000 200.00000000 200.00000000 200.00000000 200.00000000 200.00000000 200.00000000 200.00000000 200.00000000 200.00000000 200.00000000 234.05521671 252.54019037 259.34895921 259.34895921 252.54019037 234.05521671 200.00000000 200.00000000 200.00000000 200.00000000 200.00000000 200.00000000 200.00000000 200.00000000 200.00000000 200.00000000 200.00000000 200.00000000 200.00000000 200.00000000 200.00000000 200.00000000 200.00000000 200.00000000 200.00000000 200.00000000 200.00000000 200.00000000 200.00000000 200.00000000 200.00000000 200.00000000 200.00000000 200.00000000 200.00000000 234.80274723 261.26540120 277.58669731 288.67037719 298.79550206 315.19851310 328.53114693 334.98825159 334.98825159 328.53114693 315.19851310 298.79550206 288.67037719 277.58669731 261.26540120 234.80274723 200.00000000 200.00000000 200.00000000 200.00000000 200.00000000 200.00000000 200.00000000 200.00000000 200.00000000 200.00000000 200.00000000 200.00000000 200.00000000 200.00000000 200.00000000 200.00000000 200.00000000 200.00000000 200.00000000 200.00000000 200.00000000 200.00000000 250.55887785 279.84280143 309.95038196 337.80503069 359.36211645 375.63090914 388.94391912 401.46668065 411.27482695 416.40593658 416.40593658 411.27482695 401.46668065 388.94391912 375.63090914 359.36211645 337.80503069 309.95038196 279.84280143 250.55887785 200.00000000 200.00000000 200.00000000 200.00000000 200.00000000 200.00000000 200.00000000 200.00000000 200.00000000 200.00000000 200.00000000 200.00000000 200.00000000 200.00000000 200.00000000 200.00000000 200.00000000 200.00000000 245.92054267 280.33823688 322.09001824 357.62625176 389.12948336 416.67982261 438.99890241 456.39087487 470.02057827 480.86390883 488.64909993 492.69482292 492.69482292 488.64909993 480.86390883 470.02057827 456.39087487 438.99890241 416.67982261 389.12948336 357.62625176 322.09001824 280.33823688 245.92054267 200.00000000 200.00000000 200.00000000 200.00000000 200.00000000 200.00000000 200.00000000 200.00000000 200.00000000 200.00000000 200.00000000 200.00000000 200.00000000 200.00000000 200.00000000 257.32284777 307.96140496 352.78295144 395.04045595 431.80130070 463.01525251 488.99151392 509.77806709 525.88729090 538.15866252 547.29085025 553.48177231 556.62407424 556.62407424 553.48177231 547.29085025 538.15866252 525.88729090 509.77806709 488.99151392 463.01525251 431.80130070 395.04045595 352.78295144 307.96140496 257.32284777 200.00000000 200.00000000 200.00000000 200.00000000 200.00000000 200.00000000 200.00000000 200.00000000 200.00000000 200.00000000 200.00000000 200.00000000 227.24395577 267.56929820 321.14540106 373.45346166 420.83918127 462.60026914 497.80618299 526.57673254 549.53272367 567.36701871 580.88164748 590.90139525 598.07998855 602.77389988 605.10680965 605.10680965 602.77389988 598.07998855 590.90139525 580.88164748 567.36701871 549.53272367 526.57673254 497.80618299 462.60026914 420.83918127 373.45346166 321.14540106 267.56929820 227.24395577 200.00000000 200.00000000 200.00000000 200.00000000 200.00000000 200.00000000 200.00000000 200.00000000 200.00000000 200.00000000 265.74554708 324.01807355 381.41308339 434.64563660 481.34409060 520.60377262 552.33287908 577.18571457 596.19097372 610.42297411 620.87920966 628.40875952 633.64440879 636.97811064 638.60690831 638.60690831 636.97811064 633.64440879 628.40875952 620.87920966 610.42297411 596.19097372 577.18571457 552.33287908 520.60377262 481.34409060 434.64563660 381.41308339 324.01807355 265.74554708 200.00000000 200.00000000 200.00000000 200.00000000 200.00000000 200.00000000 200.00000000 200.00000000 200.00000000 251.62375780 313.69461519 376.03446077 434.99846484 487.43575861 531.53387138 566.90657536 594.17511395 614.55257266 629.43631859 640.12403139 647.69310880 652.97015374 656.53579733 658.75379511 659.82131440 659.82131440 658.75379511 656.53579733 652.97015374 647.69310880 640.12403139 629.43631859 614.55257266 594.17511395 566.90657536 531.53387138 487.43575861 434.99846484 376.03446077 313.69461519 251.62375780 200.00000000 200.00000000 200.00000000 200.00000000 200.00000000 200.00000000 200.00000000 236.49649800 292.11267629 356.19940357 420.35769686 479.26259199 529.66142386 570.23729393 601.26532887 624.01820588 640.17999344 651.40954592 659.10365060 664.32805001 667.83982500 670.14137984 671.53995034 672.20326319 672.20326319 671.53995034 670.14137984 667.83982500 664.32805001 659.10365060 651.40954592 640.17999344 624.01820588 601.26532887 570.23729393 529.66142386 479.26259199 420.35769686 356.19940357 292.11267629 236.49649800 200.00000000 200.00000000 200.00000000 200.00000000 200.00000000 200.00000000 257.03445254 321.30787240 389.13255637 454.55568893 512.67935528 560.63954178 597.70457488 624.78731345 643.69463517 656.45001235 664.86086630 670.33776923 673.88559866 676.17383492 677.62330045 678.48200612 678.88296459 678.88296459 678.48200612 677.62330045 676.17383492 673.88559866 670.33776923 664.86086630 656.45001235 643.69463517 624.78731345 597.70457488 560.63954178 512.67935528 454.55568893 389.13255637 321.30787240 257.03445254 200.00000000 200.00000000 200.00000000 200.00000000 200.00000000 200.00000000 270.12780547 340.70709625 411.42129936 477.57548652 534.79808181 580.67694440 614.99326648 639.15181579 655.32979711 665.75797130 672.30962806 676.37049541 678.87828234 680.42698107 681.37294946 681.91836487 682.16885028 682.16885028 681.91836487 681.37294946 680.42698107 678.87828234 676.37049541 672.30962806 665.75797130 655.32979711 639.15181579 614.99326648 580.67694440 534.79808181 477.57548652 411.42129936 340.70709625 270.12780547 200.00000000 200.00000000 200.00000000 200.00000000 200.00000000 220.80860157 280.75834369 351.24894150 422.79709460 489.13197019 545.75593007 590.44980578 623.27259135 645.89076975 660.66788486 669.92969126 675.57035487 678.95206230 680.97084050 682.17803565 682.89511961 683.29987879 683.48334939 683.48334939 683.29987879 682.89511961 682.17803565 680.97084050 678.95206230 675.57035487 669.92969126 660.66788486 645.89076975 623.27259135 590.44980578 545.75593007 489.13197019 422.79709460 351.24894150 280.75834369 220.80860157 200.00000000 200.00000000 200.00000000 200.00000000 220.80860157 280.75834369 351.24894150 422.79709460 489.13197019 545.75593007 590.44980578 623.27259135 645.89076975 660.66788486 669.92969126 675.57035487 678.95206230 680.97084050 682.17803565 682.89511961 683.29987879 683.48334939 683.48334939 683.29987879 682.89511961 682.17803565 680.97084050 678.95206230 675.57035487 669.92969126 660.66788486 645.89076975 623.27259135 590.44980578 545.75593007 489.13197019 422.79709460 351.24894150 280.75834369 220.80860157 200.00000000 200.00000000 200.00000000 200.00000000 200.00000000 270.12780547 340.70709625 411.42129936 477.57548652 534.79808181 580.67694440 614.99326648 639.15181579 655.32979711 665.75797130 672.30962806 676.37049541 678.87828234 680.42698107 681.37294946 681.91836487 682.16885028 682.16885028 681.91836487 681.37294946 680.42698107 678.87828234 676.37049541 672.30962806 665.75797130 655.32979711 639.15181579 614.99326648 580.67694440 534.79808181 477.57548652 411.42129936 340.70709625 270.12780547 200.00000000 200.00000000 200.00000000 200.00000000 200.00000000 200.00000000 257.03445254 321.30787240 389.13255637 454.55568893 512.67935528 560.63954178 597.70457488 624.78731345 643.69463517 656.45001235 664.86086630 670.33776923 673.88559866 676.17383492 677.62330045 678.48200612 678.88296459 678.88296459 678.48200612 677.62330045 676.17383492 673.88559866 670.33776923 664.86086630 656.45001235 643.69463517 624.78731345 597.70457488 560.63954178 512.67935528 454.55568893 389.13255637 321.30787240 257.03445254 200.00000000 200.00000000 200.00000000 200.00000000 200.00000000 200.00000000 236.49649800 292.11267629 356.19940357 420.35769686 479.26259199 529.66142386 570.23729393 601.26532887 624.01820588 640.17999344 651.40954592 659.10365060 664.32805001 667.83982500 670.14137984 671.53995034 672.20326319 672.20326319 671.53995034 670.14137984 667.83982500 664.32805001 659.10365060 651.40954592 640.17999344 624.01820588 601.26532887 570.23729393 529.66142386 479.26259199 420.35769686 356.19940357 292.11267629 236.49649800 200.00000000 200.00000000 200.00000000 200.00000000 200.00000000 200.00000000 200.00000000 251.62375780 313.69461519 376.03446077 434.99846484 487.43575861 531.53387138 566.90657536 594.17511395 614.55257266 629.43631859 640.12403139 647.69310880 652.97015374 656.53579733 658.75379511 659.82131440 659.82131440 658.75379511 656.53579733 652.97015374 647.69310880 640.12403139 629.43631859 614.55257266 594.17511395 566.90657536 531.53387138 487.43575861 434.99846484 376.03446077 313.69461519 251.62375780 200.00000000 200.00000000 200.00000000 200.00000000 200.00000000 200.00000000 200.00000000 200.00000000 200.00000000 265.74554708 324.01807355 381.41308339 434.64563660 481.34409060 520.60377262 552.33287908 577.18571457 596.19097372 610.42297411 620.87920966 628.40875952 633.64440879 636.97811064 638.60690831 638.60690831 636.97811064 633.64440879 628.40875952 620.87920966 610.42297411 596.19097372 577.18571457 552.33287908 520.60377262 481.34409060 434.64563660 381.41308339 324.01807355 265.74554708 200.00000000 200.00000000 200.00000000 200.00000000 200.00000000 200.00000000 200.00000000 200.00000000 200.00000000 200.00000000 227.24395577 267.56929820 321.14540106 373.45346166 420.83918127 462.60026914 497.80618299 526.57673254 549.53272367 567.36701871 580.88164748 590.90139525 598.07998855 602.77389988 605.10680965 605.10680965 602.77389988 598.07998855 590.90139525 580.88164748 567.36701871 549.53272367 526.57673254 497.80618299 462.60026914 420.83918127 373.45346166 321.14540106 267.56929820 227.24395577 200.00000000 200.00000000 200.00000000 200.00000000 200.00000000 200.00000000 200.00000000 200.00000000 200.00000000 200.00000000 200.00000000 200.00000000 257.32284777 307.96140496 352.78295144 395.04045595 431.80130070 463.01525251 488.99151392 509.77806709 525.88729090 538.15866252 547.29085025 553.48177231 556.62407424 556.62407424 553.48177231 547.29085025 538.15866252 525.88729090 509.77806709 488.99151392 463.01525251 431.80130070 395.04045595 352.78295144 307.96140496 257.32284777 200.00000000 200.00000000 200.00000000 200.00000000 200.00000000 200.00000000 200.00000000 200.00000000 200.00000000 200.00000000 200.00000000 200.00000000 200.00000000 200.00000000 200.00000000 245.92054267 280.33823688 322.09001824 357.62625176 389.12948336 416.67982261 438.99890241 456.39087487 470.02057827 480.86390883 488.64909993 492.69482292 492.69482292 488.64909993 480.86390883 470.02057827 456.39087487 438.99890241 416.67982261 389.12948336 357.62625176 322.09001824 280.33823688 245.92054267 200.00000000 200.00000000 200.00000000 200.00000000 200.00000000 200.00000000 200.00000000 200.00000000 200.00000000 200.00000000 200.00000000 200.00000000 200.00000000 200.00000000 200.00000000 200.00000000 200.00000000 200.00000000 250.55887785 279.84280143 309.95038196 337.80503069 359.36211645 375.63090914 388.94391912 401.46668065 411.27482695 416.40593658 416.40593658 411.27482695 401.46668065 388.94391912 375.63090914 359.36211645 337.80503069 309.95038196 279.84280143 250.55887785 200.00000000 200.00000000 200.00000000 200.00000000 200.00000000 200.00000000 200.00000000 200.00000000 200.00000000 200.00000000 200.00000000 200.00000000 200.00000000 200.00000000 200.00000000 200.00000000 200.00000000 200.00000000 200.00000000 200.00000000 200.00000000 200.00000000 234.80274723 261.26540120 277.58669731 288.67037719 298.79550206 315.19851310 328.53114693 334.98825159 334.98825159 328.53114693 315.19851310 298.79550206 288.67037719 277.58669731 261.26540120 234.80274723 200.00000000 200.00000000 200.00000000 200.00000000 200.00000000 200.00000000 200.00000000 200.00000000 200.00000000 200.00000000 200.00000000 200.00000000 200.00000000 200.00000000 200.00000000 200.00000000 200.00000000 200.00000000 200.00000000 200.00000000 200.00000000 200.00000000 200.00000000 200.00000000 200.00000000 200.00000000 200.00000000 200.00000000 200.00000000 234.05521671 252.54019037 259.34895921 259.34895921 252.54019037 234.05521671 200.00000000 200.00000000 200.00000000 200.00000000 200.00000000 200.00000000 200.00000000 200.00000000 200.00000000 200.00000000 200.00000000 200.00000000 200.00000000 200.00000000 200.00000000 200.00000000 200.00000000 200.00000000 200.00000000 200.00000000 200.00000000 200.00000000 200.00000000 200.00000000 200.00000000 200.00000000 200.00000000 200.00000000 200.00000000 200.00000000 200.00000000 200.00000000 200.00000000 200.00000000 200.00000000 200.00000000 200.00000000 200.00000000 200.00000000 200.00000000 200.00000000 200.00000000 200.00000000 200.00000000 200.00000000 200.00000000 200.00000000 200.00000000 200.00000000 200.00000000 200.00000000 200.00000000 200.00000000 200.00000000 200.00000000 200.00000000 200.00000000 200.00000000 200.00000000 200.00000000 200.00000000 200.00000000 200.00000000 200.00000000 200.00000000 200.00000000 200.00000000 200.00000000 200.00000000 200.00000000 200.00000000 200.00000000 200.00000000 200.00000000 200.00000000 200.00000000 200.00000000 200.00000000 200.00000000 200.00000000 200.00000000 200.00000000 200.00000000 200.00000000 200.00000000 200.00000000 200.00000000 200.00000000 200.00000000 200.00000000 200.00000000 200.00000000 200.00000000 200.00000000 200.00000000 200.00000000 200.00000000 200.00000000 200.00000000 200.00000000 200.00000000 200.00000000 200.00000000 200.00000000 200.00000000 200.00000000 200.00000000 200.00000000 200.00000000 200.00000000 200.00000000 200.00000000 200.00000000 200.00000000 200.00000000 200.00000000 200.00000000 200.00000000 200.00000000 200.00000000 200.00000000 200.00000000 200.00000000 200.00000000 200.00000000 200.00000000 200.00000000 200.00000000 200.00000000 200.00000000 200.00000000 200.00000000 200.00000000 200.00000000 200.00000000 200.00000000 200.00000000 200.00000000 200.00000000 200.00000000 200.00000000 200.00000000 200.00000000 200.00000000 200.00000000 200.00000000 200.00000000 200.00000000 200.00000000 200.00000000 200.00000000 200.00000000 200.00000000 200.00000000 200.00000000 200.00000000 200.00000000 200.00000000 200.00000000 200.00000000 200.00000000 200.00000000 200.00000000 200.00000000 200.00000000 200.00000000 200.00000000 200.00000000 200.00000000 200.00000000 200.00000000 200.00000000 200.00000000 200.00000000 200.00000000 200.00000000 200.00000000 200.00000000 200.00000000 200.00000000 200.00000000 200.00000000 200.00000000 200.00000000 200.00000000 200.00000000 200.00000000 200.00000000 200.00000000 200.00000000 200.00000000 200.00000000 200.00000000 200.00000000 200.00000000 200.00000000 200.00000000 200.00000000 200.00000000 200.00000000 200.00000000 200.00000000 200.00000000 200.00000000 200.00000000 200.00000000 200.00000000 200.00000000 200.00000000 200.00000000 200.00000000 200.00000000 200.00000000 200.00000000 200.00000000 200.00000000 200.00000000 200.00000000 200.00000000 200.00000000 200.00000000 200.00000000 200.00000000 200.00000000 200.00000000 200.00000000 200.00000000 200.00000000 200.00000000 200.00000000 200.00000000 200.00000000 200.00000000 200.00000000 200.00000000 200.00000000 200.00000000 200.00000000 200.00000000 200.00000000 200.00000000 200.00000000 200.00000000 200.00000000 200.00000000 200.00000000 200.00000000 200.00000000 200.00000000 200.00000000 200.00000000 200.00000000 200.00000000 200.00000000 200.00000000 200.00000000 200.00000000 200.00000000 200.00000000 200.00000000 200.00000000 200.00000000 200.00000000 200.00000000 200.00000000 200.00000000 200.00000000 200.00000000 200.00000000 200.00000000 200.00000000 200.00000000 200.00000000 200.00000000 200.00000000 200.00000000 200.00000000 200.00000000 200.00000000 200.00000000 200.00000000 200.00000000 200.00000000 200.00000000 200.00000000 200.00000000 200.00000000 200.00000000 200.00000000 200.00000000 200.00000000 200.00000000 200.00000000 200.00000000 200.00000000 200.00000000 200.00000000 200.00000000 200.00000000 200.00000000 200.00000000 200.00000000 200.00000000 200.00000000 200.00000000 200.00000000 200.00000000 200.00000000 200.00000000 200.00000000 200.00000000 200.00000000 200.00000000 200.00000000 200.00000000 200.00000000 200.00000000 200.00000000 200.00000000 200.00000000 200.00000000 200.00000000 200.00000000 200.00000000 200.00000000 200.00000000 200.00000000 200.00000000 200.00000000 200.00000000 200.00000000 200.00000000 200.00000000 200.00000000 200.00000000 200.00000000 200.00000000 