# vtk DataFile Version 3.0
VTK - Matlab export
ASCII
DATASET STRUCTURED_POINTS
DIMENSIONS 40 40 1
SPACING 1 1 1
ORIGIN 0 0 0
POINT_DATA 1600
SCALARS lambda-2 float 1
LOOKUP_TABLE default
8.35311101 8.35311101 8.35311101 8.35311101 8.35311101 8.35311101 8.35311101 8.35311101 8.35311101 8.35311101 8.35311101 8.35311101 8.35311101 8.35311101 8.35311101 8.35311101 8.35311101 8.35311101 8.35311101 8.35311101 8.35311101 8.35311101 8.35311101 8.35311101 8.35311101 8.35311101 8.35311101 8.35311101 8.35311101 8.35311101 8.35311101 8.35311101 8.35311101 8.35311101 8.35311101 8.35311101 8.35311101 8.35311101 8.35311101 8.35311101 8.35311101 8.35311101 8.35311101 8.35311101 8.35311101 8.35311101 8.35311101 8.35311101 8.35311101 8.35311101 8.35311101 8.35311101 8.35311101 8.35311101 8.35311101 8.35311101 8.35311101 8.35311101 8.35311101 8.35311101 8.35311101 8.35311101 8.35311101 8.35311101 8.35311101 8.35311101 8.35311101 8.35311101 8.35311101 8.35311101 8.35311101 8.35311101 8.35311101 8.35311101 8.35311101 8.35311101 8.35311101 8.35311101 8.35311101 8.35311101 8.35311101 8.35311101 8.35311101 8.35311101 8.35311101 8.35311101 8.35311101 8.35311101 8.35311101 8.35311101 8.35311101 8.35311101 8.35311101 8.35311101 8.35311101 8.35311101 8.35311101 8.35311101 8.35311101 8.35311101 8.35311101 8.35311101 8.35311101 8.35311101 8.35311101 8.35311101 8.35311101 8.35311101 8.35311101 8.35311101 8.35311101 8.35311101 8.35311101 8.35311101 8.35311101 8.35311101 8.35311101 8.35311101 8.35311101 8.35311101 8.35311101 8.35311101 8.35311101 8.35311101 8.35311101 8.35311101 8.35311101 8.35311101 8.35311101 8.35311101 8.35311101 8.35311101 8.35311101 8.35311101 8.35311101 8.35311101 8.35311101 8.35311101 8.35311101 8.35311101 8.35311101 8.35311101 8.35311101 8.35311101 8.35311101 8.35311101 8.35311101 8.35311101 8.35311101 8.35311101 8.35311101 8.35311101 8.35311101 8.35311101 8.35311101 8.35311101 8.35311101 8.35311101 8.35311101 8.35311101 8.35311101 8.35311101 8.35311101 8.35311101 8.35311101 8.35311101 8.35311101 8.35311101 8.35311101 8.35311101 8.35311101 8.35311101 8.35311101 8.35311101 8.35311101 8.35311101 8.35311101 8.35311101 8.35311101 8.35311101 8.35311101 8.35311101 8.35311101 8.35311101 8.35311101 8.35311101 8.35311101 8.35311101 8.35311101 8.35311101 8.35311101 8.35311101 8.35311101 8.35311101 8.35311101 8.35311101 8.35311101 8.35311101 8.35311101 8.35311101 8.35311101 8.35311101 8.35311101 8.35311101 8.35311101 8.35311101 8.35311101 8.35311101 8.35311101 8.35311101 8.35311101 8.35311101 8.35311101 8.35311101 8.35311101 8.35311101 8.35311101 8.35311101 8.35311101 8.35311101 8.35311101 8.35311101 8.35311101 8.35311101 8.35311101 8.35311101 8.35311101 8.35311101 8.35311101 8.35311101 8.35311101 8.35311101 8.35311101 8.35311101 8.35311101 8.35311101 8.35311101 8.35311101 8.35311101 8.35311101 8.35311101 8.35311101 8.35311101 8.35311101 8.35311101 8.35311101 8.35311101 8.35311101 8.35311101 8.35311101 8.35311101 8.35311101 8.35311101 8.35311101 8.35311101 8.35311101 8.35311101 8.35311101 8.35311101 8.35311101 8.35311101 8.35311101 8.35311101 8.35311101 8.35311101 8.35311101 8.35311101 8.35311101 8.35311101 8.35311101 8.35311101 8.35311101 8.35311101 8.35311101 8.35311101 8.35311101 8.35311101 8.35311101 8.35311101 8.35311101 8.35311101 8.35311101 8.35311101 8.35311101 8.35311101 8.35311101 8.35311101 8.35311101 8.35311101 8.35311101 8.35311101 8.35311101 8.35311101 8.35311101 8.35311101 8.35311101 8.35311101 8.35311101 8.35311101 8.35311101 8.35311101 8.35311101 8.35311101 8.35311101 8.35311101 8.35311101 8.35311101 8.35311101 8.35311101 8.35311101 8.35311101 8.35311101 8.35311101 8.35311101 8.35311101 8.35311101 8.35311101 8.35311101 8.35311101 8.35311101 8.35311101 8.35311101 8.35311101 8.35311101 8.35311101 8.35311101 8.35311101 8.35311101 8.35311101 8.35311101 8.35311101 8.35311101 8.35311101 8.35311101 8.35311101 8.35311101 8.35311101 8.31407250 8.28702090 8.27546553 8.27546553 8.28702090 8.31407250 8.35311101 8.35311101 8.35311101 8.35311101 8.35311101 8.35311101 8.35311101 8.35311101 8.35311101 8.35311101 8.35311101 8.35311101 8.35311101 8.35311101 8.35311101 8.35311101 8.35311101 8.35311101 8.35311101 8.35311101 8.35311101 8.35311101 8.35311101 8.35311101 8.35311101 8.35311101 8.35311101 8.35311101 8.35311101 8.31326138 8.28406116 8.27233163 8.27062454 8.26861878 8.25340249 8.23708128 8.22886991 8.22886991 8.23708128 8.25340249 8.26861878 8.27062454 8.27233163 8.28406116 8.31326138 8.35311101 8.35311101 8.35311101 8.35311101 8.35311101 8.35311101 8.35311101 8.35311101 8.35311101 8.35311101 8.35311101 8.35311101 8.35311101 8.35311101 8.35311101 8.35311101 8.35311101 8.35311101 8.35311101 8.35311101 8.35311101 8.35311101 8.29592234 8.27144598 8.25196921 8.23854780 8.23682121 8.24260309 8.24804040 8.24765977 8.24484232 8.24356141 8.24356141 8.24484232 8.24765977 8.24804040 8.24260309 8.23682121 8.23854780 8.25196921 8.27144598 8.29592234 8.35311101 8.35311101 8.35311101 8.35311101 8.35311101 8.35311101 8.35311101 8.35311101 8.35311101 8.35311101 8.35311101 8.35311101 8.35311101 8.35311101 8.35311101 8.35311101 8.35311101 8.35311101 8.29969951 8.27114824 8.24456386 8.23759657 8.24111186 8.24850389 8.25904235 8.27032514 8.27926137 8.28463574 8.28780485 8.28973033 8.28973033 8.28780485 8.28463574 8.27926137 8.27032514 8.25904235 8.24850389 8.24111186 8.23759657 8.24456386 8.27114824 8.29969951 8.35311101 8.35311101 8.35311101 8.35311101 8.35311101 8.35311101 8.35311101 8.35311101 8.35311101 8.35311101 8.35311101 8.35311101 8.35311101 8.35311101 8.35311101 8.29103861 8.25082871 8.23797457 8.24126862 8.25612559 8.27401726 8.28957039 8.30203740 8.31144631 8.31799014 8.32236246 8.32536436 8.32709999 8.32709999 8.32536436 8.32236246 8.31799014 8.31144631 8.30203740 8.28957039 8.27401726 8.25612559 8.24126862 8.23797457 8.25082871 8.29103861 8.35311101 8.35311101 8.35311101 8.35311101 8.35311101 8.35311101 8.35311101 8.35311101 8.35311101 8.35311101 8.35311101 8.35311101 8.31768441 8.27876694 8.24542200 8.23741713 8.25122916 8.27366981 8.29592924 8.31341001 8.32534570 8.33306732 8.33791224 8.34092938 8.34293485 8.34434850 8.34515085 8.34515085 8.34434850 8.34293485 8.34092938 8.33791224 8.33306732 8.32534570 8.31341001 8.29592924 8.27366981 8.25122916 8.23741713 8.24542200 8.27876694 8.31768441 8.35311101 8.35311101 8.35311101 8.35311101 8.35311101 8.35311101 8.35311101 8.35311101 8.35311101 8.35311101 8.27788735 8.24179536 8.23883818 8.25878066 8.28657089 8.31083728 8.32779674 8.33813741 8.34396612 8.34716959 8.34891160 8.34989293 8.35052967 8.35098202 8.35123547 8.35123547 8.35098202 8.35052967 8.34989293 8.34891160 8.34716959 8.34396612 8.33813741 8.32779674 8.31083728 8.28657089 8.25878066 8.23883818 8.24179536 8.27788735 8.35311101 8.35311101 8.35311101 8.35311101 8.35311101 8.35311101 8.35311101 8.35311101 8.35311101 8.28801582 8.24182065 8.23670559 8.26069358 8.29268046 8.31882476 8.33539157 8.34434026 8.34871954 8.35077484 8.35174547 8.35220905 8.35244651 8.35259702 8.35270469 8.35276431 8.35276431 8.35270469 8.35259702 8.35244651 8.35220905 8.35174547 8.35077484 8.34871954 8.34434026 8.33539157 8.31882476 8.29268046 8.26069358 8.23670559 8.24182065 8.28801582 8.35311101 8.35311101 8.35311101 8.35311101 8.35311101 8.35311101 8.35311101 8.29709191 8.24341473 8.22917919 8.25336942 8.29052023 8.32057008 8.33837423 8.34700052 8.35065469 8.35208635 8.35264016 8.35286399 8.35295808 8.35300202 8.35302946 8.35304932 8.35306016 8.35306016 8.35304932 8.35302946 8.35300202 8.35295808 8.35286399 8.35264016 8.35208635 8.35065469 8.34700052 8.33837423 8.32057008 8.29052023 8.25336942 8.22917919 8.24341473 8.29709191 8.35311101 8.35311101 8.35311101 8.35311101 8.35311101 8.35311101 8.27077697 8.22604635 8.23641869 8.27670633 8.31447762 8.33712689 8.34741792 8.35126879 8.35253062 8.35291576 8.35303487 8.35307534 8.35309024 8.35309658 8.35310054 8.35310345 8.35310501 8.35310501 8.35310345 8.35310054 8.35309658 8.35309024 8.35307534 8.35303487 8.35291576 8.35253062 8.35126879 8.34741792 8.33712689 8.31447762 8.27670633 8.23641869 8.22604635 8.27077697 8.35311101 8.35311101 8.35311101 8.35311101 8.35311101 8.35311101 8.25936382 8.22440106 8.24981338 8.29529098 8.32871706 8.34492545 8.35082355 8.35255000 8.35298010 8.35307776 8.35310045 8.35310664 8.35310860 8.35310936 8.35310985 8.35311021 8.35311040 8.35311040 8.35311021 8.35310985 8.35310936 8.35310860 8.35310664 8.35310045 8.35307776 8.35298010 8.35255000 8.35082355 8.34492545 8.32871706 8.29529098 8.24981338 8.22440106 8.25936382 8.35311101 8.35311101 8.35311101 8.35311101 8.35311101 8.32050820 8.24749813 8.22456531 8.25811824 8.30460921 8.33478772 8.34774806 8.35185146 8.35286446 8.35306792 8.35310311 8.35310907 8.35311031 8.35311063 8.35311075 8.35311083 8.35311089 8.35311093 8.35311093 8.35311089 8.35311083 8.35311075 8.35311063 8.35311031 8.35310907 8.35310311 8.35306792 8.35286446 8.35185146 8.34774806 8.33478772 8.30460921 8.25811824 8.22456531 8.24749813 8.32050820 8.35311101 8.35311101 8.35311101 8.35311101 8.32050820 8.24749813 8.22456531 8.25811824 8.30460921 8.33478772 8.34774806 8.35185146 8.35286446 8.35306792 8.35310311 8.35310907 8.35311031 8.35311063 8.35311075 8.35311083 8.35311089 8.35311093 8.35311093 8.35311089 8.35311083 8.35311075 8.35311063 8.35311031 8.35310907 8.35310311 8.35306792 8.35286446 8.35185146 8.34774806 8.33478772 8.30460921 8.25811824 8.22456531 8.24749813 8.32050820 8.35311101 8.35311101 8.35311101 8.35311101 8.35311101 8.25936382 8.22440106 8.24981338 8.29529098 8.32871706 8.34492545 8.35082355 8.35255000 8.35298010 8.35307776 8.35310045 8.35310664 8.35310860 8.35310936 8.35310985 8.35311021 8.35311040 8.35311040 8.35311021 8.35310985 8.35310936 8.35310860 8.35310664 8.35310045 8.35307776 8.35298010 8.35255000 8.35082355 8.34492545 8.32871706 8.29529098 8.24981338 8.22440106 8.25936382 8.35311101 8.35311101 8.35311101 8.35311101 8.35311101 8.35311101 8.27077697 8.22604635 8.23641869 8.27670633 8.31447762 8.33712689 8.34741792 8.35126879 8.35253062 8.35291576 8.35303487 8.35307534 8.35309024 8.35309658 8.35310054 8.35310345 8.35310501 8.35310501 8.35310345 8.35310054 8.35309658 8.35309024 8.35307534 8.35303487 8.35291576 8.35253062 8.35126879 8.34741792 8.33712689 8.31447762 8.27670633 8.23641869 8.22604635 8.27077697 8.35311101 8.35311101 8.35311101 8.35311101 8.35311101 8.35311101 8.29709191 8.24341473 8.22917919 8.25336942 8.29052023 8.32057008 8.33837423 8.34700052 8.35065469 8.35208635 8.35264016 8.35286399 8.35295808 8.35300202 8.35302946 8.35304932 8.35306016 8.35306016 8.35304932 8.35302946 8.35300202 8.35295808 8.35286399 8.35264016 8.35208635 8.35065469 8.34700052 8.33837423 8.32057008 8.29052023 8.25336942 8.22917919 8.24341473 8.29709191 8.35311101 8.35311101 8.35311101 8.35311101 8.35311101 8.35311101 8.35311101 8.28801582 8.24182065 8.23670559 8.26069358 8.29268046 8.31882476 8.33539157 8.34434026 8.34871954 8.35077484 8.35174547 8.35220905 8.35244651 8.35259702 8.35270469 8.35276431 8.35276431 8.35270469 8.35259702 8.35244651 8.35220905 8.35174547 8.35077484 8.34871954 8.34434026 8.33539157 8.31882476 8.29268046 8.26069358 8.23670559 8.24182065 8.28801582 8.35311101 8.35311101 8.35311101 8.35311101 8.35311101 8.35311101 8.35311101 8.35311101 8.35311101 8.27788735 8.24179536 8.23883818 8.25878066 8.28657089 8.31083728 8.32779674 8.33813741 8.34396612 8.34716959 8.34891160 8.34989293 8.35052967 8.35098202 8.35123547 8.35123547 8.35098202 8.35052967 8.34989293 8.34891160 8.34716959 8.34396612 8.33813741 8.32779674 8.31083728 8.28657089 8.25878066 8.23883818 8.24179536 8.27788735 8.35311101 8.35311101 8.35311101 8.35311101 8.35311101 8.35311101 8.35311101 8.35311101 8.35311101 8.35311101 8.31768441 8.27876694 8.24542200 8.23741713 8.25122916 8.27366981 8.29592924 8.31341001 8.32534570 8.33306732 8.33791224 8.34092938 8.34293485 8.34434850 8.34515085 8.34515085 8.34434850 8.34293485 8.34092938 8.33791224 8.33306732 8.32534570 8.31341001 8.29592924 8.27366981 8.25122916 8.23741713 8.24542200 8.27876694 8.31768441 8.35311101 8.35311101 8.35311101 8.35311101 8.35311101 8.35311101 8.35311101 8.35311101 8.35311101 8.35311101 8.35311101 8.35311101 8.29103861 8.25082871 8.23797457 8.24126862 8.25612559 8.27401726 8.28957039 8.30203740 8.31144631 8.31799014 8.32236246 8.32536436 8.32709999 8.32709999 8.32536436 8.32236246 8.31799014 8.31144631 8.30203740 8.28957039 8.27401726 8.25612559 8.24126862 8.23797457 8.25082871 8.29103861 8.35311101 8.35311101 8.35311101 8.35311101 8.35311101 8.35311101 8.35311101 8.35311101 8.35311101 8.35311101 8.35311101 8.35311101 8.35311101 8.35311101 8.35311101 8.29969951 8.27114824 8.24456386 8.23759657 8.24111186 8.24850389 8.25904235 8.27032514 8.27926137 8.28463574 8.28780485 8.28973033 8.28973033 8.28780485 8.28463574 8.27926137 8.27032514 8.25904235 8.24850389 8.24111186 8.23759657 8.24456386 8.27114824 8.29969951 8.35311101 8.35311101 8.35311101 8.35311101 8.35311101 8.35311101 8.35311101 8.35311101 8.35311101 8.35311101 8.35311101 8.35311101 8.35311101 8.35311101 8.35311101 8.35311101 8.35311101 8.35311101 8.29592234 8.27144598 8.25196921 8.23854780 8.23682121 8.24260309 8.24804040 8.24765977 8.24484232 8.24356141 8.24356141 8.24484232 8.24765977 8.24804040 8.24260309 8.23682121 8.23854780 8.25196921 8.27144598 8.29592234 8.35311101 8.35311101 8.35311101 8.35311101 8.35311101 8.35311101 8.35311101 8.35311101 8.35311101 8.35311101 8.35311101 8.35311101 8.35311101 8.35311101 8.35311101 8.35311101 8.35311101 8.35311101 8.35311101 8.35311101 8.35311101 8.35311101 8.31326138 8.28406116 8.27233163 8.27062454 8.26861878 8.25340249 8.23708128 8.22886991 8.22886991 8.23708128 8.25340249 8.26861878 8.27062454 8.27233163 8.28406116 8.31326138 8.35311101 8.35311101 8.35311101 8.35311101 8.35311101 8.35311101 8.35311101 8.35311101 8.35311101 8.35311101 8.35311101 8.35311101 8.35311101 8.35311101 8.35311101 8.35311101 8.35311101 8.35311101 8.35311101 8.35311101 8.35311101 8.35311101 8.35311101 8.35311101 8.35311101 8.35311101 8.35311101 8.35311101 8.35311101 8.31407250 8.28702090 8.27546553 8.27546553 8.28702090 8.31407250 8.35311101 8.35311101 8.35311101 8.35311101 8.35311101 8.35311101 8.35311101 8.35311101 8.35311101 8.35311101 8.35311101 8.35311101 8.35311101 8.35311101 8.35311101 8.35311101 8.35311101 8.35311101 8.35311101 8.35311101 8.35311101 8.35311101 8.35311101 8.35311101 8.35311101 8.35311101 8.35311101 8.35311101 8.35311101 8.35311101 8.35311101 8.35311101 8.35311101 8.35311101 8.35311101 8.35311101 8.35311101 8.35311101 8.35311101 8.35311101 8.35311101 8.35311101 8.35311101 8.35311101 8.35311101 8.35311101 8.35311101 8.35311101 8.35311101 8.35311101 8.35311101 8.35311101 8.35311101 8.35311101 8.35311101 8.35311101 8.35311101 8.35311101 8.35311101 8.35311101 8.35311101 8.35311101 8.35311101 8.35311101 8.35311101 8.35311101 8.35311101 8.35311101 8.35311101 8.35311101 8.35311101 8.35311101 8.35311101 8.35311101 8.35311101 8.35311101 8.35311101 8.35311101 8.35311101 8.35311101 8.35311101 8.35311101 8.35311101 8.35311101 8.35311101 8.35311101 8.35311101 8.35311101 8.35311101 8.35311101 8.35311101 8.35311101 8.35311101 8.35311101 8.35311101 8.35311101 8.35311101 8.35311101 8.35311101 8.35311101 8.35311101 8.35311101 8.35311101 8.35311101 8.35311101 8.35311101 8.35311101 8.35311101 8.35311101 8.35311101 8.35311101 8.35311101 8.35311101 8.35311101 8.35311101 8.35311101 8.35311101 8.35311101 8.35311101 8.35311101 8.35311101 8.35311101 8.35311101 8.35311101 8.35311101 8.35311101 8.35311101 8.35311101 8.35311101 8.35311101 8.35311101 8.35311101 8.35311101 8.35311101 8.35311101 8.35311101 8.35311101 8.35311101 8.35311101 8.35311101 8.35311101 8.35311101 8.35311101 8.35311101 8.35311101 8.35311101 8.35311101 8.35311101 8.35311101 8.35311101 8.35311101 8.35311101 8.35311101 8.35311101 8.35311101 8.35311101 8.35311101 8.35311101 8.35311101 8.35311101 8.35311101 8.35311101 8.35311101 8.35311101 8.35311101 8.35311101 8.35311101 8.35311101 8.35311101 8.35311101 8.35311101 8.35311101 8.35311101 8.35311101 8.35311101 8.35311101 8.35311101 8.35311101 8.35311101 8.35311101 8.35311101 8.35311101 8.35311101 8.35311101 8.35311101 8.35311101 8.35311101 8.35311101 8.35311101 8.35311101 8.35311101 8.35311101 8.35311101 8.35311101 8.35311101 8.35311101 8.35311101 8.35311101 8.35311101 8.35311101 8.35311101 8.35311101 8.35311101 8.35311101 8.35311101 8.35311101 8.35311101 8.35311101 8.35311101 8.35311101 8.35311101 8.35311101 8.35311101 8.35311101 8.35311101 8.35311101 8.35311101 8.35311101 8.35311101 8.35311101 8.35311101 8.35311101 8.35311101 8.35311101 8.35311101 8.35311101 8.35311101 8.35311101 8.35311101 8.35311101 8.35311101 8.35311101 8.35311101 8.35311101 8.35311101 8.35311101 8.35311101 8.35311101 8.35311101 8.35311101 8.35311101 8.35311101 8.35311101 8.35311101 8.35311101 8.35311101 8.35311101 8.35311101 8.35311101 8.35311101 8.35311101 8.35311101 8.35311101 8.35311101 8.35311101 8.35311101 8.35311101 8.35311101 8.35311101 8.35311101 8.35311101 8.35311101 8.35311101 8.35311101 8.35311101 8.35311101 8.35311101 8.35311101 8.35311101 8.35311101 8.35311101 8.35311101 8.35311101 8.35311101 8.35311101 8.35311101 8.35311101 8.35311101 8.35311101 8.35311101 8.35311101 8.35311101 8.35311101 8.35311101 8.35311101 8.35311101 8.35311101 8.35311101 8.35311101 8.35311101 8.35311101 8.35311101 8.35311101 8.35311101 8.35311101 8.35311101 8.35311101 8.35311101 8.35311101 8.35311101 8.35311101 8.35311101 8.35311101 8.35311101 8.35311101 8.35311101 8.35311101 8.35311101 8.35311101 8.35311101 8.35311101 8.35311101 8.35311101 8.35311101 8.35311101 8.35311101 8.35311101 8.35311101 8.35311101 8.35311101 8.35311101 8.35311101 8.35311101 8.35311101 8.35311101 8.35311101 8.35311101 8.35311101 8.35311101 8.35311101 8.35311101 8.35311101 8.35311101 8.35311101 8.35311101 8.35311101 8.35311101 