# vtk DataFile Version 3.0
VTK - Matlab export
ASCII
DATASET STRUCTURED_POINTS
DIMENSIONS 40 40 1
SPACING 1 1 1
ORIGIN 0 0 0
POINT_DATA 1600
SCALARS Temperature float 1
LOOKUP_TABLE default
200.00000000 200.00000000 200.00000000 200.00000000 200.00000000 200.00000000 200.00000000 200.00000000 200.00000000 200.00000000 200.00000000 200.00000000 200.00000000 200.00000000 200.00000000 200.00000000 200.00000000 200.00000000 200.00000000 200.00000000 200.00000000 200.00000000 200.00000000 200.00000000 200.00000000 200.00000000 200.00000000 200.00000000 200.00000000 200.00000000 200.00000000 200.00000000 200.00000000 200.00000000 200.00000000 200.00000000 200.00000000 200.00000000 200.00000000 200.00000000 200.00000000 200.00000000 200.00000000 200.00000000 200.00000000 200.00000000 200.00000000 200.00000000 200.00000000 200.00000000 200.00000000 200.00000000 200.00000000 200.00000000 200.00000000 200.00000000 200.00000000 200.00000000 200.00000000 200.00000000 200.00000000 200.00000000 200.00000000 200.00000000 200.00000000 200.00000000 200.00000000 200.00000000 200.00000000 200.00000000 200.00000000 200.00000000 200.00000000 200.00000000 200.00000000 200.00000000 200.00000000 200.00000000 200.00000000 200.00000000 200.00000000 200.00000000 200.00000000 200.00000000 200.00000000 200.00000000 200.00000000 200.00000000 200.00000000 200.00000000 200.00000000 200.00000000 200.00000000 200.00000000 200.00000000 200.00000000 200.00000000 200.00000000 200.00000000 200.00000000 200.00000000 200.00000000 200.00000000 200.00000000 200.00000000 200.00000000 200.00000000 200.00000000 200.00000000 200.00000000 200.00000000 200.00000000 200.00000000 200.00000000 200.00000000 200.00000000 200.00000000 200.00000000 200.00000000 200.00000000 200.00000000 200.00000000 200.00000000 200.00000000 200.00000000 200.00000000 200.00000000 200.00000000 200.00000000 200.00000000 200.00000000 200.00000000 200.00000000 200.00000000 200.00000000 200.00000000 200.00000000 200.00000000 200.00000000 200.00000000 200.00000000 200.00000000 200.00000000 200.00000000 200.00000000 200.00000000 200.00000000 200.00000000 200.00000000 200.00000000 200.00000000 200.00000000 200.00000000 200.00000000 200.00000000 200.00000000 200.00000000 200.00000000 200.00000000 200.00000000 200.00000000 200.00000000 200.00000000 200.00000000 200.00000000 200.00000000 200.00000000 200.00000000 200.00000000 200.00000000 200.00000000 200.00000000 200.00000000 200.00000000 200.00000000 200.00000000 200.00000000 200.00000000 200.00000000 200.00000000 200.00000000 200.00000000 200.00000000 200.00000000 200.00000000 200.00000000 200.00000000 200.00000000 200.00000000 200.00000000 200.00000000 200.00000000 200.00000000 200.00000000 200.00000000 200.00000000 200.00000000 200.00000000 200.00000000 200.00000000 200.00000000 200.00000000 200.00000000 200.00000000 200.00000000 200.00000000 200.00000000 200.00000000 200.00000000 200.00000000 200.00000000 200.00000000 200.00000000 200.00000000 200.00000000 200.00000000 200.00000000 200.00000000 200.00000000 200.00000000 200.00000000 200.00000000 200.00000000 200.00000000 200.00000000 200.00000000 200.00000000 200.00000000 200.00000000 200.00000000 200.00000000 200.00000000 200.00000000 200.00000000 200.00000000 200.00000000 200.00000000 200.00000000 200.00000000 200.00000000 200.00000000 200.00000000 200.00000000 200.00000000 200.00000000 200.00000000 200.00000000 200.00000000 200.00000000 200.00000000 200.00000000 200.00000000 200.00000000 200.00000000 200.00000000 200.00000000 200.00000000 200.00000000 200.00000000 200.00000000 200.00000000 200.00000000 200.00000000 200.00000000 200.00000000 200.00000000 200.00000000 200.00000000 200.00000000 200.00000000 200.00000000 200.00000000 200.00000000 200.00000000 200.00000000 200.00000000 200.00000000 200.00000000 200.00000000 200.00000000 200.00000000 200.00000000 200.00000000 200.00000000 200.00000000 200.00000000 200.00000000 200.00000000 200.00000000 200.00000000 200.00000000 200.00000000 200.00000000 200.00000000 200.00000000 200.00000000 200.00000000 200.00000000 200.00000000 200.00000000 200.00000000 200.00000000 200.00000000 200.00000000 200.00000000 200.00000000 200.00000000 200.00000000 200.00000000 200.00000000 200.00000000 200.00000000 200.00000000 200.00000000 200.00000000 200.00000000 200.00000000 200.00000000 200.00000000 200.00000000 200.00000000 200.00000000 200.00000000 200.00000000 200.00000000 200.00000000 200.00000000 200.00000000 200.00000000 200.00000000 200.00000000 200.00000000 200.00000000 200.00000000 200.00000000 200.00000000 200.00000000 219.32601441 229.70748551 233.50740810 233.50740810 229.70748551 219.32601441 200.00000000 200.00000000 200.00000000 200.00000000 200.00000000 200.00000000 200.00000000 200.00000000 200.00000000 200.00000000 200.00000000 200.00000000 200.00000000 200.00000000 200.00000000 200.00000000 200.00000000 200.00000000 200.00000000 200.00000000 200.00000000 200.00000000 200.00000000 200.00000000 200.00000000 200.00000000 200.00000000 200.00000000 200.00000000 219.24662305 234.09750870 243.57728786 250.30091267 256.49194074 266.05776726 273.72220866 277.42202594 277.42202594 273.72220866 266.05776726 256.49194074 250.30091267 243.57728786 234.09750870 219.24662305 200.00000000 200.00000000 200.00000000 200.00000000 200.00000000 200.00000000 200.00000000 200.00000000 200.00000000 200.00000000 200.00000000 200.00000000 200.00000000 200.00000000 200.00000000 200.00000000 200.00000000 200.00000000 200.00000000 200.00000000 200.00000000 200.00000000 227.43072270 243.83833125 261.16120950 277.62549090 290.93165362 301.45816244 310.25875522 318.33129381 324.51947840 327.73462672 327.73462672 324.51947840 318.33129381 310.25875522 301.45816244 290.93165362 277.62549090 261.16120950 243.83833125 227.43072270 200.00000000 200.00000000 200.00000000 200.00000000 200.00000000 200.00000000 200.00000000 200.00000000 200.00000000 200.00000000 200.00000000 200.00000000 200.00000000 200.00000000 200.00000000 200.00000000 200.00000000 200.00000000 224.26597175 243.12430378 266.63951726 287.65049340 307.20632203 325.11305333 340.42318953 353.01495231 363.23079850 371.36680761 377.13585379 380.11150965 380.11150965 377.13585379 371.36680761 363.23079850 353.01495231 340.42318953 325.11305333 307.20632203 287.65049340 266.63951726 243.12430378 224.26597175 200.00000000 200.00000000 200.00000000 200.00000000 200.00000000 200.00000000 200.00000000 200.00000000 200.00000000 200.00000000 200.00000000 200.00000000 200.00000000 200.00000000 200.00000000 229.81638573 257.15471243 282.73560394 308.26717568 332.04766829 353.73021377 373.06295557 389.64932330 403.37160918 414.34486255 422.69450233 428.37389402 431.25185142 431.25185142 428.37389402 422.69450233 414.34486255 403.37160918 389.64932330 373.06295557 353.73021377 332.04766829 308.26717568 282.73560394 257.15471243 229.81638573 200.00000000 200.00000000 200.00000000 200.00000000 200.00000000 200.00000000 200.00000000 200.00000000 200.00000000 200.00000000 200.00000000 200.00000000 213.55759136 234.27729507 262.93274477 292.63691992 321.70336476 349.60224689 375.42969901 398.67675263 419.05825203 436.38421042 450.62539686 461.88108910 470.27371300 475.86536758 478.66355754 478.66355754 475.86536758 470.27371300 461.88108910 450.62539686 436.38421042 419.05825203 398.67675263 375.42969901 349.60224689 321.70336476 292.63691992 262.93274477 234.27729507 213.55759136 200.00000000 200.00000000 200.00000000 200.00000000 200.00000000 200.00000000 200.00000000 200.00000000 200.00000000 200.00000000 232.53519304 262.81790878 294.82022769 327.24915972 358.84586065 388.68050845 415.96740687 440.20960013 461.16105320 478.75165071 493.05271971 504.22425065 512.44375293 517.85167324 520.53525854 520.53525854 517.85167324 512.44375293 504.22425065 493.05271971 478.75165071 461.16105320 440.20960013 415.96740687 388.68050845 358.84586065 327.24915972 294.82022769 262.81790878 232.53519304 200.00000000 200.00000000 200.00000000 200.00000000 200.00000000 200.00000000 200.00000000 200.00000000 200.00000000 224.81199974 255.91032153 289.36829416 324.16262688 358.96260784 392.50585452 423.76868886 451.99714798 476.74417059 497.83767766 515.31244329 529.34220081 540.17083351 548.04756782 553.17981872 555.71016217 555.71016217 553.17981872 548.04756782 540.17083351 529.34220081 515.31244329 497.83767766 476.74417059 451.99714798 423.76868886 392.50585452 358.96260784 324.16262688 289.36829416 255.91032153 224.81199974 200.00000000 200.00000000 200.00000000 200.00000000 200.00000000 200.00000000 200.00000000 217.06819039 243.90347297 276.65791890 312.47668798 349.51337019 386.19910221 421.18722902 453.41946572 482.17053402 507.05592840 527.98871804 545.10321817 558.67037569 569.01812763 576.46542564 581.27638679 583.63507792 583.63507792 581.27638679 576.46542564 569.01812763 558.67037569 545.10321817 527.98871804 507.05592840 482.17053402 453.41946572 421.18722902 386.19910221 349.51337019 312.47668798 276.65791890 243.90347297 217.06819039 200.00000000 200.00000000 200.00000000 200.00000000 200.00000000 200.00000000 226.54689121 257.62613566 292.91352326 330.81389630 369.61260420 407.70032526 443.69223294 476.52399135 505.50370997 530.30914918 550.93335138 567.59775395 580.65644527 590.50910051 597.53270325 602.03574695 604.23271453 604.23271453 602.03574695 597.53270325 590.50910051 580.65644527 567.59775395 550.93335138 530.30914918 505.50370997 476.52399135 443.69223294 407.70032526 369.61260420 330.81389630 292.91352326 257.62613566 226.54689121 200.00000000 200.00000000 200.00000000 200.00000000 200.00000000 200.00000000 232.55781408 266.77281173 304.07107127 343.50332818 383.52248798 422.53645479 459.15233758 492.31237987 521.35509585 546.00829158 566.32666223 582.59650810 595.23256183 604.68616119 611.37525016 615.63861529 617.71075950 617.71075950 615.63861529 611.37525016 604.68616119 595.23256183 582.59650810 566.32666223 546.00829158 521.35509585 492.31237987 459.15233758 422.53645479 383.52248798 343.50332818 304.07107127 266.77281173 232.55781408 200.00000000 200.00000000 200.00000000 200.00000000 200.00000000 209.53611192 237.39374581 271.73643910 309.81788473 349.99900793 390.63130012 430.10298594 467.01518965 500.31553992 529.36037417 553.90531778 574.03855176 590.08097963 602.47926842 611.71167900 618.21722366 622.34999071 624.35440147 624.35440147 622.34999071 618.21722366 611.71167900 602.47926842 590.08097963 574.03855176 553.90531778 529.36037417 500.31553992 467.01518965 430.10298594 390.63130012 349.99900793 309.81788473 271.73643910 237.39374581 209.53611192 200.00000000 200.00000000 200.00000000 200.00000000 209.53611192 237.39374581 271.73643910 309.81788473 349.99900793 390.63130012 430.10298594 467.01518965 500.31553992 529.36037417 553.90531778 574.03855176 590.08097963 602.47926842 611.71167900 618.21722366 622.34999071 624.35440147 624.35440147 622.34999071 618.21722366 611.71167900 602.47926842 590.08097963 574.03855176 553.90531778 529.36037417 500.31553992 467.01518965 430.10298594 390.63130012 349.99900793 309.81788473 271.73643910 237.39374581 209.53611192 200.00000000 200.00000000 200.00000000 200.00000000 200.00000000 232.55781408 266.77281173 304.07107127 343.50332818 383.52248798 422.53645479 459.15233758 492.31237987 521.35509585 546.00829158 566.32666223 582.59650810 595.23256183 604.68616119 611.37525016 615.63861529 617.71075950 617.71075950 615.63861529 611.37525016 604.68616119 595.23256183 582.59650810 566.32666223 546.00829158 521.35509585 492.31237987 459.15233758 422.53645479 383.52248798 343.50332818 304.07107127 266.77281173 232.55781408 200.00000000 200.00000000 200.00000000 200.00000000 200.00000000 200.00000000 226.54689121 257.62613566 292.91352326 330.81389630 369.61260420 407.70032526 443.69223294 476.52399135 505.50370997 530.30914918 550.93335138 567.59775395 580.65644527 590.50910051 597.53270325 602.03574695 604.23271453 604.23271453 602.03574695 597.53270325 590.50910051 580.65644527 567.59775395 550.93335138 530.30914918 505.50370997 476.52399135 443.69223294 407.70032526 369.61260420 330.81389630 292.91352326 257.62613566 226.54689121 200.00000000 200.00000000 200.00000000 200.00000000 200.00000000 200.00000000 217.06819039 243.90347297 276.65791890 312.47668798 349.51337019 386.19910221 421.18722902 453.41946572 482.17053402 507.05592840 527.98871804 545.10321817 558.67037569 569.01812763 576.46542564 581.27638679 583.63507792 583.63507792 581.27638679 576.46542564 569.01812763 558.67037569 545.10321817 527.98871804 507.05592840 482.17053402 453.41946572 421.18722902 386.19910221 349.51337019 312.47668798 276.65791890 243.90347297 217.06819039 200.00000000 200.00000000 200.00000000 200.00000000 200.00000000 200.00000000 200.00000000 224.81199974 255.91032153 289.36829416 324.16262688 358.96260784 392.50585452 423.76868886 451.99714798 476.74417059 497.83767766 515.31244329 529.34220081 540.17083351 548.04756782 553.17981872 555.71016217 555.71016217 553.17981872 548.04756782 540.17083351 529.34220081 515.31244329 497.83767766 476.74417059 451.99714798 423.76868886 392.50585452 358.96260784 324.16262688 289.36829416 255.91032153 224.81199974 200.00000000 200.00000000 200.00000000 200.00000000 200.00000000 200.00000000 200.00000000 200.00000000 200.00000000 232.53519304 262.81790878 294.82022769 327.24915972 358.84586065 388.68050845 415.96740687 440.20960013 461.16105320 478.75165071 493.05271971 504.22425065 512.44375293 517.85167324 520.53525854 520.53525854 517.85167324 512.44375293 504.22425065 493.05271971 478.75165071 461.16105320 440.20960013 415.96740687 388.68050845 358.84586065 327.24915972 294.82022769 262.81790878 232.53519304 200.00000000 200.00000000 200.00000000 200.00000000 200.00000000 200.00000000 200.00000000 200.00000000 200.00000000 200.00000000 213.55759136 234.27729507 262.93274477 292.63691992 321.70336476 349.60224689 375.42969901 398.67675263 419.05825203 436.38421042 450.62539686 461.88108910 470.27371300 475.86536758 478.66355754 478.66355754 475.86536758 470.27371300 461.88108910 450.62539686 436.38421042 419.05825203 398.67675263 375.42969901 349.60224689 321.70336476 292.63691992 262.93274477 234.27729507 213.55759136 200.00000000 200.00000000 200.00000000 200.00000000 200.00000000 200.00000000 200.00000000 200.00000000 200.00000000 200.00000000 200.00000000 200.00000000 229.81638573 257.15471243 282.73560394 308.26717568 332.04766829 353.73021377 373.06295557 389.64932330 403.37160918 414.34486255 422.69450233 428.37389402 431.25185142 431.25185142 428.37389402 422.69450233 414.34486255 403.37160918 389.64932330 373.06295557 353.73021377 332.04766829 308.26717568 282.73560394 257.15471243 229.81638573 200.00000000 200.00000000 200.00000000 200.00000000 200.00000000 200.00000000 200.00000000 200.00000000 200.00000000 200.00000000 200.00000000 200.00000000 200.00000000 200.00000000 200.00000000 224.26597175 243.12430378 266.63951726 287.65049340 307.20632203 325.11305333 340.42318953 353.01495231 363.23079850 371.36680761 377.13585379 380.11150965 380.11150965 377.13585379 371.36680761 363.23079850 353.01495231 340.42318953 325.11305333 307.20632203 287.65049340 266.63951726 243.12430378 224.26597175 200.00000000 200.00000000 200.00000000 200.00000000 200.00000000 200.00000000 200.00000000 200.00000000 200.00000000 200.00000000 200.00000000 200.00000000 200.00000000 200.00000000 200.00000000 200.00000000 200.00000000 200.00000000 227.43072270 243.83833125 261.16120950 277.62549090 290.93165362 301.45816244 310.25875522 318.33129381 324.51947840 327.73462672 327.73462672 324.51947840 318.33129381 310.25875522 301.45816244 290.93165362 277.62549090 261.16120950 243.83833125 227.43072270 200.00000000 200.00000000 200.00000000 200.00000000 200.00000000 200.00000000 200.00000000 200.00000000 200.00000000 200.00000000 200.00000000 200.00000000 200.00000000 200.00000000 200.00000000 200.00000000 200.00000000 200.00000000 200.00000000 200.00000000 200.00000000 200.00000000 219.24662305 234.09750870 243.57728786 250.30091267 256.49194074 266.05776726 273.72220866 277.42202594 277.42202594 273.72220866 266.05776726 256.49194074 250.30091267 243.57728786 234.09750870 219.24662305 200.00000000 200.00000000 200.00000000 200.00000000 200.00000000 200.00000000 200.00000000 200.00000000 200.00000000 200.00000000 200.00000000 200.00000000 200.00000000 200.00000000 200.00000000 200.00000000 200.00000000 200.00000000 200.00000000 200.00000000 200.00000000 200.00000000 200.00000000 200.00000000 200.00000000 200.00000000 200.00000000 200.00000000 200.00000000 219.32601441 229.70748551 233.50740810 233.50740810 229.70748551 219.32601441 200.00000000 200.00000000 200.00000000 200.00000000 200.00000000 200.00000000 200.00000000 200.00000000 200.00000000 200.00000000 200.00000000 200.00000000 200.00000000 200.00000000 200.00000000 200.00000000 200.00000000 200.00000000 200.00000000 200.00000000 200.00000000 200.00000000 200.00000000 200.00000000 200.00000000 200.00000000 200.00000000 200.00000000 200.00000000 200.00000000 200.00000000 200.00000000 200.00000000 200.00000000 200.00000000 200.00000000 200.00000000 200.00000000 200.00000000 200.00000000 200.00000000 200.00000000 200.00000000 200.00000000 200.00000000 200.00000000 200.00000000 200.00000000 200.00000000 200.00000000 200.00000000 200.00000000 200.00000000 200.00000000 200.00000000 200.00000000 200.00000000 200.00000000 200.00000000 200.00000000 200.00000000 200.00000000 200.00000000 200.00000000 200.00000000 200.00000000 200.00000000 200.00000000 200.00000000 200.00000000 200.00000000 200.00000000 200.00000000 200.00000000 200.00000000 200.00000000 200.00000000 200.00000000 200.00000000 200.00000000 200.00000000 200.00000000 200.00000000 200.00000000 200.00000000 200.00000000 200.00000000 200.00000000 200.00000000 200.00000000 200.00000000 200.00000000 200.00000000 200.00000000 200.00000000 200.00000000 200.00000000 200.00000000 200.00000000 200.00000000 200.00000000 200.00000000 200.00000000 200.00000000 200.00000000 200.00000000 200.00000000 200.00000000 200.00000000 200.00000000 200.00000000 200.00000000 200.00000000 200.00000000 200.00000000 200.00000000 200.00000000 200.00000000 200.00000000 200.00000000 200.00000000 200.00000000 200.00000000 200.00000000 200.00000000 200.00000000 200.00000000 200.00000000 200.00000000 200.00000000 200.00000000 200.00000000 200.00000000 200.00000000 200.00000000 200.00000000 200.00000000 200.00000000 200.00000000 200.00000000 200.00000000 200.00000000 200.00000000 200.00000000 200.00000000 200.00000000 200.00000000 200.00000000 200.00000000 200.00000000 200.00000000 200.00000000 200.00000000 200.00000000 200.00000000 200.00000000 200.00000000 200.00000000 200.00000000 200.00000000 200.00000000 200.00000000 200.00000000 200.00000000 200.00000000 200.00000000 200.00000000 200.00000000 200.00000000 200.00000000 200.00000000 200.00000000 200.00000000 200.00000000 200.00000000 200.00000000 200.00000000 200.00000000 200.00000000 200.00000000 200.00000000 200.00000000 200.00000000 200.00000000 200.00000000 200.00000000 200.00000000 200.00000000 200.00000000 200.00000000 200.00000000 200.00000000 200.00000000 200.00000000 200.00000000 200.00000000 200.00000000 200.00000000 200.00000000 200.00000000 200.00000000 200.00000000 200.00000000 200.00000000 200.00000000 200.00000000 200.00000000 200.00000000 200.00000000 200.00000000 200.00000000 200.00000000 200.00000000 200.00000000 200.00000000 200.00000000 200.00000000 200.00000000 200.00000000 200.00000000 200.00000000 200.00000000 200.00000000 200.00000000 200.00000000 200.00000000 200.00000000 200.00000000 200.00000000 200.00000000 200.00000000 200.00000000 200.00000000 200.00000000 200.00000000 200.00000000 200.00000000 200.00000000 200.00000000 200.00000000 200.00000000 200.00000000 200.00000000 200.00000000 200.00000000 200.00000000 200.00000000 200.00000000 200.00000000 200.00000000 200.00000000 200.00000000 200.00000000 200.00000000 200.00000000 200.00000000 200.00000000 200.00000000 200.00000000 200.00000000 200.00000000 200.00000000 200.00000000 200.00000000 200.00000000 200.00000000 200.00000000 200.00000000 200.00000000 200.00000000 200.00000000 200.00000000 200.00000000 200.00000000 200.00000000 200.00000000 200.00000000 200.00000000 200.00000000 200.00000000 200.00000000 200.00000000 200.00000000 200.00000000 200.00000000 200.00000000 200.00000000 200.00000000 200.00000000 200.00000000 200.00000000 200.00000000 200.00000000 200.00000000 200.00000000 200.00000000 200.00000000 200.00000000 200.00000000 200.00000000 200.00000000 200.00000000 200.00000000 200.00000000 200.00000000 200.00000000 200.00000000 200.00000000 200.00000000 200.00000000 200.00000000 200.00000000 200.00000000 200.00000000 200.00000000 200.00000000 200.00000000 200.00000000 200.00000000 200.00000000 200.00000000 200.00000000 200.00000000 200.00000000 200.00000000 200.00000000 200.00000000 200.00000000 200.00000000 200.00000000 200.00000000 200.00000000 200.00000000 200.00000000 200.00000000 200.00000000 200.00000000 