# vtk DataFile Version 3.0
VTK - Matlab export
ASCII
DATASET STRUCTURED_POINTS
DIMENSIONS 40 40 1
SPACING 1 1 1
ORIGIN 0 0 0
POINT_DATA 1600
SCALARS Temperature float 1
LOOKUP_TABLE default
200.00000000 200.00000000 200.00000000 200.00000000 200.00000000 200.00000000 200.00000000 200.00000000 200.00000000 200.00000000 200.00000000 200.00000000 200.00000000 200.00000000 200.00000000 200.00000000 200.00000000 200.00000000 200.00000000 200.00000000 200.00000000 200.00000000 200.00000000 200.00000000 200.00000000 200.00000000 200.00000000 200.00000000 200.00000000 200.00000000 200.00000000 200.00000000 200.00000000 200.00000000 200.00000000 200.00000000 200.00000000 200.00000000 200.00000000 200.00000000 200.00000000 200.00000000 200.00000000 200.00000000 200.00000000 200.00000000 200.00000000 200.00000000 200.00000000 200.00000000 200.00000000 200.00000000 200.00000000 200.00000000 200.00000000 200.00000000 200.00000000 200.00000000 200.00000000 200.00000000 200.00000000 200.00000000 200.00000000 200.00000000 200.00000000 200.00000000 200.00000000 200.00000000 200.00000000 200.00000000 200.00000000 200.00000000 200.00000000 200.00000000 200.00000000 200.00000000 200.00000000 200.00000000 200.00000000 200.00000000 200.00000000 200.00000000 200.00000000 200.00000000 200.00000000 200.00000000 200.00000000 200.00000000 200.00000000 200.00000000 200.00000000 200.00000000 200.00000000 200.00000000 200.00000000 200.00000000 200.00000000 200.00000000 200.00000000 200.00000000 200.00000000 200.00000000 200.00000000 200.00000000 200.00000000 200.00000000 200.00000000 200.00000000 200.00000000 200.00000000 200.00000000 200.00000000 200.00000000 200.00000000 200.00000000 200.00000000 200.00000000 200.00000000 200.00000000 200.00000000 200.00000000 200.00000000 200.00000000 200.00000000 200.00000000 200.00000000 200.00000000 200.00000000 200.00000000 200.00000000 200.00000000 200.00000000 200.00000000 200.00000000 200.00000000 200.00000000 200.00000000 200.00000000 200.00000000 200.00000000 200.00000000 200.00000000 200.00000000 200.00000000 200.00000000 200.00000000 200.00000000 200.00000000 200.00000000 200.00000000 200.00000000 200.00000000 200.00000000 200.00000000 200.00000000 200.00000000 200.00000000 200.00000000 200.00000000 200.00000000 200.00000000 200.00000000 200.00000000 200.00000000 200.00000000 200.00000000 200.00000000 200.00000000 200.00000000 200.00000000 200.00000000 200.00000000 200.00000000 200.00000000 200.00000000 200.00000000 200.00000000 200.00000000 200.00000000 200.00000000 200.00000000 200.00000000 200.00000000 200.00000000 200.00000000 200.00000000 200.00000000 200.00000000 200.00000000 200.00000000 200.00000000 200.00000000 200.00000000 200.00000000 200.00000000 200.00000000 200.00000000 200.00000000 200.00000000 200.00000000 200.00000000 200.00000000 200.00000000 200.00000000 200.00000000 200.00000000 200.00000000 200.00000000 200.00000000 200.00000000 200.00000000 200.00000000 200.00000000 200.00000000 200.00000000 200.00000000 200.00000000 200.00000000 200.00000000 200.00000000 200.00000000 200.00000000 200.00000000 200.00000000 200.00000000 200.00000000 200.00000000 200.00000000 200.00000000 200.00000000 200.00000000 200.00000000 200.00000000 200.00000000 200.00000000 200.00000000 200.00000000 200.00000000 200.00000000 200.00000000 200.00000000 200.00000000 200.00000000 200.00000000 200.00000000 200.00000000 200.00000000 200.00000000 200.00000000 200.00000000 200.00000000 200.00000000 200.00000000 200.00000000 200.00000000 200.00000000 200.00000000 200.00000000 200.00000000 200.00000000 200.00000000 200.00000000 200.00000000 200.00000000 200.00000000 200.00000000 200.00000000 200.00000000 200.00000000 200.00000000 200.00000000 200.00000000 200.00000000 200.00000000 200.00000000 200.00000000 200.00000000 200.00000000 200.00000000 200.00000000 200.00000000 200.00000000 200.00000000 200.00000000 200.00000000 200.00000000 200.00000000 200.00000000 200.00000000 200.00000000 200.00000000 200.00000000 200.00000000 200.00000000 200.00000000 200.00000000 200.00000000 200.00000000 200.00000000 200.00000000 200.00000000 200.00000000 200.00000000 200.00000000 200.00000000 200.00000000 200.00000000 200.00000000 200.00000000 200.00000000 200.00000000 200.00000000 200.00000000 200.00000000 200.00000000 200.00000000 200.00000000 200.00000000 200.00000000 200.00000000 200.00000000 200.00000000 200.00000000 200.00000000 200.00000000 200.00000000 200.00000000 200.00000000 200.00000000 200.00000000 200.00000000 200.00000000 200.00000000 200.00000000 200.00000000 200.00000000 200.00000000 264.09584384 300.89676957 315.10965530 315.10965530 300.89676957 264.09584384 200.00000000 200.00000000 200.00000000 200.00000000 200.00000000 200.00000000 200.00000000 200.00000000 200.00000000 200.00000000 200.00000000 200.00000000 200.00000000 200.00000000 200.00000000 200.00000000 200.00000000 200.00000000 200.00000000 200.00000000 200.00000000 200.00000000 200.00000000 200.00000000 200.00000000 200.00000000 200.00000000 200.00000000 200.00000000 266.24997010 316.08067980 344.61179543 361.76468819 377.44121573 407.20232287 433.12162013 446.14787573 446.14787573 433.12162013 407.20232287 377.44121573 361.76468819 344.61179543 316.08067980 266.24997010 200.00000000 200.00000000 200.00000000 200.00000000 200.00000000 200.00000000 200.00000000 200.00000000 200.00000000 200.00000000 200.00000000 200.00000000 200.00000000 200.00000000 200.00000000 200.00000000 200.00000000 200.00000000 200.00000000 200.00000000 200.00000000 200.00000000 296.73492348 349.91610344 402.21521953 448.20869341 479.92906286 500.47384528 516.49889669 533.97195241 549.30838845 557.73428839 557.73428839 549.30838845 533.97195241 516.49889669 500.47384528 479.92906286 448.20869341 402.21521953 349.91610344 296.73492348 200.00000000 200.00000000 200.00000000 200.00000000 200.00000000 200.00000000 200.00000000 200.00000000 200.00000000 200.00000000 200.00000000 200.00000000 200.00000000 200.00000000 200.00000000 200.00000000 200.00000000 200.00000000 288.74491022 351.47174564 424.33105341 479.74119384 523.43513916 557.69524714 581.43936632 596.78347539 607.69748527 617.26608296 625.12533742 629.50878868 629.50878868 625.12533742 617.26608296 607.69748527 596.78347539 581.43936632 557.69524714 523.43513916 479.74119384 424.33105341 351.47174564 288.74491022 200.00000000 200.00000000 200.00000000 200.00000000 200.00000000 200.00000000 200.00000000 200.00000000 200.00000000 200.00000000 200.00000000 200.00000000 200.00000000 200.00000000 200.00000000 310.09432643 401.78073240 473.68858660 533.15492317 576.44825297 606.78595460 627.85365167 641.60462337 650.12442013 655.75230809 660.13723775 663.52108397 665.39082983 665.39082983 663.52108397 660.13723775 655.75230809 650.12442013 641.60462337 627.85365167 606.78595460 576.44825297 533.15492317 473.68858660 401.78073240 310.09432643 200.00000000 200.00000000 200.00000000 200.00000000 200.00000000 200.00000000 200.00000000 200.00000000 200.00000000 200.00000000 200.00000000 200.00000000 254.97892329 331.58325783 425.79296439 506.02687824 565.91290262 608.21505238 635.83614856 653.08400174 663.74626623 670.15339314 673.88666543 676.18864149 677.84257406 679.05658404 679.71700314 679.71700314 679.05658404 677.84257406 676.18864149 673.88666543 670.15339314 663.74626623 653.08400174 635.83614856 608.21505238 565.91290262 506.02687824 425.79296439 331.58325783 254.97892329 200.00000000 200.00000000 200.00000000 200.00000000 200.00000000 200.00000000 200.00000000 200.00000000 200.00000000 200.00000000 330.85635008 434.63415408 520.52319769 583.77460228 625.62145382 651.31187875 666.08974192 674.25970889 678.75236212 681.21101803 682.54348429 683.31089242 683.82766386 684.19193762 684.38687970 684.38687970 684.19193762 683.82766386 683.31089242 682.54348429 681.21101803 678.75236212 674.25970889 666.08974192 651.31187875 625.62145382 583.77460228 520.52319769 434.63415408 330.85635008 200.00000000 200.00000000 200.00000000 200.00000000 200.00000000 200.00000000 200.00000000 200.00000000 200.00000000 306.62770434 422.46980745 518.77490900 588.53566538 633.09030097 658.68607160 672.27454193 679.07828634 682.37480587 683.97619007 684.76659958 685.16150877 685.37361500 685.50859731 685.60059224 685.64904276 685.64904276 685.60059224 685.50859731 685.37361500 685.16150877 684.76659958 683.97619007 682.37480587 679.07828634 672.27454193 658.68607160 633.09030097 588.53566538 518.77490900 422.46980745 306.62770434 200.00000000 200.00000000 200.00000000 200.00000000 200.00000000 200.00000000 200.00000000 279.27373923 389.98268300 497.29452921 579.13927389 631.39998314 660.30940620 674.58667186 681.07242248 683.85629936 685.01925969 685.51121356 685.72736068 685.82596407 685.87520233 685.90495241 685.92464474 685.93485129 685.93485129 685.92464474 685.90495241 685.87520233 685.82596407 685.72736068 685.51121356 685.01925969 683.85629936 681.07242248 674.58667186 660.30940620 631.39998314 579.13927389 497.29452921 389.98268300 279.27373923 200.00000000 200.00000000 200.00000000 200.00000000 200.00000000 200.00000000 323.29311873 446.35331510 548.22739668 616.85682383 655.24935371 673.60912030 681.34910420 684.31714429 685.38613179 685.76124919 685.89591200 685.94746161 685.96864141 685.97842071 685.98404068 685.98766175 685.98950635 685.98950635 685.98766175 685.98404068 685.97842071 685.96864141 685.94746161 685.89591200 685.76124919 685.38613179 684.31714429 681.34910420 673.60912030 655.24935371 616.85682383 548.22739668 446.35331510 323.29311873 200.00000000 200.00000000 200.00000000 200.00000000 200.00000000 200.00000000 350.17375128 480.73341485 578.10960954 637.34538851 666.95263682 679.40094637 683.92371082 685.38490483 685.81891798 685.94275600 685.97895174 685.99056961 685.99476411 685.99653526 685.99750518 685.99811739 685.99842445 685.99842445 685.99811739 685.99750518 685.99653526 685.99476411 685.99056961 685.97895174 685.94275600 685.81891798 685.38490483 683.92371082 679.40094637 666.95263682 637.34538851 578.10960954 480.73341485 350.17375128 200.00000000 200.00000000 200.00000000 200.00000000 200.00000000 245.92332751 372.63251464 498.80567770 591.95845537 646.12365797 671.57547082 681.48215562 684.75092210 685.68613380 685.92453201 685.98094127 685.99426368 685.99775019 685.99882734 685.99923999 685.99946258 685.99960724 685.99968084 685.99968084 685.99960724 685.99946258 685.99923999 685.99882734 685.99775019 685.99426368 685.98094127 685.92453201 685.68613380 684.75092210 681.48215562 671.57547082 646.12365797 591.95845537 498.80567770 372.63251464 245.92332751 200.00000000 200.00000000 200.00000000 200.00000000 245.92332751 372.63251464 498.80567770 591.95845537 646.12365797 671.57547082 681.48215562 684.75092210 685.68613380 685.92453201 685.98094127 685.99426368 685.99775019 685.99882734 685.99923999 685.99946258 685.99960724 685.99968084 685.99968084 685.99960724 685.99946258 685.99923999 685.99882734 685.99775019 685.99426368 685.98094127 685.92453201 685.68613380 684.75092210 681.48215562 671.57547082 646.12365797 591.95845537 498.80567770 372.63251464 245.92332751 200.00000000 200.00000000 200.00000000 200.00000000 200.00000000 350.17375128 480.73341485 578.10960954 637.34538851 666.95263682 679.40094637 683.92371082 685.38490483 685.81891798 685.94275600 685.97895174 685.99056961 685.99476411 685.99653526 685.99750518 685.99811739 685.99842445 685.99842445 685.99811739 685.99750518 685.99653526 685.99476411 685.99056961 685.97895174 685.94275600 685.81891798 685.38490483 683.92371082 679.40094637 666.95263682 637.34538851 578.10960954 480.73341485 350.17375128 200.00000000 200.00000000 200.00000000 200.00000000 200.00000000 200.00000000 323.29311873 446.35331510 548.22739668 616.85682383 655.24935371 673.60912030 681.34910420 684.31714429 685.38613179 685.76124919 685.89591200 685.94746161 685.96864141 685.97842071 685.98404068 685.98766175 685.98950635 685.98950635 685.98766175 685.98404068 685.97842071 685.96864141 685.94746161 685.89591200 685.76124919 685.38613179 684.31714429 681.34910420 673.60912030 655.24935371 616.85682383 548.22739668 446.35331510 323.29311873 200.00000000 200.00000000 200.00000000 200.00000000 200.00000000 200.00000000 279.27373923 389.98268300 497.29452921 579.13927389 631.39998314 660.30940620 674.58667186 681.07242248 683.85629936 685.01925969 685.51121356 685.72736068 685.82596407 685.87520233 685.90495241 685.92464474 685.93485129 685.93485129 685.92464474 685.90495241 685.87520233 685.82596407 685.72736068 685.51121356 685.01925969 683.85629936 681.07242248 674.58667186 660.30940620 631.39998314 579.13927389 497.29452921 389.98268300 279.27373923 200.00000000 200.00000000 200.00000000 200.00000000 200.00000000 200.00000000 200.00000000 306.62770434 422.46980745 518.77490900 588.53566538 633.09030097 658.68607160 672.27454193 679.07828634 682.37480587 683.97619007 684.76659958 685.16150877 685.37361500 685.50859731 685.60059224 685.64904276 685.64904276 685.60059224 685.50859731 685.37361500 685.16150877 684.76659958 683.97619007 682.37480587 679.07828634 672.27454193 658.68607160 633.09030097 588.53566538 518.77490900 422.46980745 306.62770434 200.00000000 200.00000000 200.00000000 200.00000000 200.00000000 200.00000000 200.00000000 200.00000000 200.00000000 330.85635008 434.63415408 520.52319769 583.77460228 625.62145382 651.31187875 666.08974192 674.25970889 678.75236212 681.21101803 682.54348429 683.31089242 683.82766386 684.19193762 684.38687970 684.38687970 684.19193762 683.82766386 683.31089242 682.54348429 681.21101803 678.75236212 674.25970889 666.08974192 651.31187875 625.62145382 583.77460228 520.52319769 434.63415408 330.85635008 200.00000000 200.00000000 200.00000000 200.00000000 200.00000000 200.00000000 200.00000000 200.00000000 200.00000000 200.00000000 254.97892329 331.58325783 425.79296439 506.02687824 565.91290262 608.21505238 635.83614856 653.08400174 663.74626623 670.15339314 673.88666543 676.18864149 677.84257406 679.05658404 679.71700314 679.71700314 679.05658404 677.84257406 676.18864149 673.88666543 670.15339314 663.74626623 653.08400174 635.83614856 608.21505238 565.91290262 506.02687824 425.79296439 331.58325783 254.97892329 200.00000000 200.00000000 200.00000000 200.00000000 200.00000000 200.00000000 200.00000000 200.00000000 200.00000000 200.00000000 200.00000000 200.00000000 310.09432643 401.78073240 473.68858660 533.15492317 576.44825297 606.78595460 627.85365167 641.60462337 650.12442013 655.75230809 660.13723775 663.52108397 665.39082983 665.39082983 663.52108397 660.13723775 655.75230809 650.12442013 641.60462337 627.85365167 606.78595460 576.44825297 533.15492317 473.68858660 401.78073240 310.09432643 200.00000000 200.00000000 200.00000000 200.00000000 200.00000000 200.00000000 200.00000000 200.00000000 200.00000000 200.00000000 200.00000000 200.00000000 200.00000000 200.00000000 200.00000000 288.74491022 351.47174564 424.33105341 479.74119384 523.43513916 557.69524714 581.43936632 596.78347539 607.69748527 617.26608296 625.12533742 629.50878868 629.50878868 625.12533742 617.26608296 607.69748527 596.78347539 581.43936632 557.69524714 523.43513916 479.74119384 424.33105341 351.47174564 288.74491022 200.00000000 200.00000000 200.00000000 200.00000000 200.00000000 200.00000000 200.00000000 200.00000000 200.00000000 200.00000000 200.00000000 200.00000000 200.00000000 200.00000000 200.00000000 200.00000000 200.00000000 200.00000000 296.73492348 349.91610344 402.21521953 448.20869341 479.92906286 500.47384528 516.49889669 533.97195241 549.30838845 557.73428839 557.73428839 549.30838845 533.97195241 516.49889669 500.47384528 479.92906286 448.20869341 402.21521953 349.91610344 296.73492348 200.00000000 200.00000000 200.00000000 200.00000000 200.00000000 200.00000000 200.00000000 200.00000000 200.00000000 200.00000000 200.00000000 200.00000000 200.00000000 200.00000000 200.00000000 200.00000000 200.00000000 200.00000000 200.00000000 200.00000000 200.00000000 200.00000000 266.24997010 316.08067980 344.61179543 361.76468819 377.44121573 407.20232287 433.12162013 446.14787573 446.14787573 433.12162013 407.20232287 377.44121573 361.76468819 344.61179543 316.08067980 266.24997010 200.00000000 200.00000000 200.00000000 200.00000000 200.00000000 200.00000000 200.00000000 200.00000000 200.00000000 200.00000000 200.00000000 200.00000000 200.00000000 200.00000000 200.00000000 200.00000000 200.00000000 200.00000000 200.00000000 200.00000000 200.00000000 200.00000000 200.00000000 200.00000000 200.00000000 200.00000000 200.00000000 200.00000000 200.00000000 264.09584384 300.89676957 315.10965530 315.10965530 300.89676957 264.09584384 200.00000000 200.00000000 200.00000000 200.00000000 200.00000000 200.00000000 200.00000000 200.00000000 200.00000000 200.00000000 200.00000000 200.00000000 200.00000000 200.00000000 200.00000000 200.00000000 200.00000000 200.00000000 200.00000000 200.00000000 200.00000000 200.00000000 200.00000000 200.00000000 200.00000000 200.00000000 200.00000000 200.00000000 200.00000000 200.00000000 200.00000000 200.00000000 200.00000000 200.00000000 200.00000000 200.00000000 200.00000000 200.00000000 200.00000000 200.00000000 200.00000000 200.00000000 200.00000000 200.00000000 200.00000000 200.00000000 200.00000000 200.00000000 200.00000000 200.00000000 200.00000000 200.00000000 200.00000000 200.00000000 200.00000000 200.00000000 200.00000000 200.00000000 200.00000000 200.00000000 200.00000000 200.00000000 200.00000000 200.00000000 200.00000000 200.00000000 200.00000000 200.00000000 200.00000000 200.00000000 200.00000000 200.00000000 200.00000000 200.00000000 200.00000000 200.00000000 200.00000000 200.00000000 200.00000000 200.00000000 200.00000000 200.00000000 200.00000000 200.00000000 200.00000000 200.00000000 200.00000000 200.00000000 200.00000000 200.00000000 200.00000000 200.00000000 200.00000000 200.00000000 200.00000000 200.00000000 200.00000000 200.00000000 200.00000000 200.00000000 200.00000000 200.00000000 200.00000000 200.00000000 200.00000000 200.00000000 200.00000000 200.00000000 200.00000000 200.00000000 200.00000000 200.00000000 200.00000000 200.00000000 200.00000000 200.00000000 200.00000000 200.00000000 200.00000000 200.00000000 200.00000000 200.00000000 200.00000000 200.00000000 200.00000000 200.00000000 200.00000000 200.00000000 200.00000000 200.00000000 200.00000000 200.00000000 200.00000000 200.00000000 200.00000000 200.00000000 200.00000000 200.00000000 200.00000000 200.00000000 200.00000000 200.00000000 200.00000000 200.00000000 200.00000000 200.00000000 200.00000000 200.00000000 200.00000000 200.00000000 200.00000000 200.00000000 200.00000000 200.00000000 200.00000000 200.00000000 200.00000000 200.00000000 200.00000000 200.00000000 200.00000000 200.00000000 200.00000000 200.00000000 200.00000000 200.00000000 200.00000000 200.00000000 200.00000000 200.00000000 200.00000000 200.00000000 200.00000000 200.00000000 200.00000000 200.00000000 200.00000000 200.00000000 200.00000000 200.00000000 200.00000000 200.00000000 200.00000000 200.00000000 200.00000000 200.00000000 200.00000000 200.00000000 200.00000000 200.00000000 200.00000000 200.00000000 200.00000000 200.00000000 200.00000000 200.00000000 200.00000000 200.00000000 200.00000000 200.00000000 200.00000000 200.00000000 200.00000000 200.00000000 200.00000000 200.00000000 200.00000000 200.00000000 200.00000000 200.00000000 200.00000000 200.00000000 200.00000000 200.00000000 200.00000000 200.00000000 200.00000000 200.00000000 200.00000000 200.00000000 200.00000000 200.00000000 200.00000000 200.00000000 200.00000000 200.00000000 200.00000000 200.00000000 200.00000000 200.00000000 200.00000000 200.00000000 200.00000000 200.00000000 200.00000000 200.00000000 200.00000000 200.00000000 200.00000000 200.00000000 200.00000000 200.00000000 200.00000000 200.00000000 200.00000000 200.00000000 200.00000000 200.00000000 200.00000000 200.00000000 200.00000000 200.00000000 200.00000000 200.00000000 200.00000000 200.00000000 200.00000000 200.00000000 200.00000000 200.00000000 200.00000000 200.00000000 200.00000000 200.00000000 200.00000000 200.00000000 200.00000000 200.00000000 200.00000000 200.00000000 200.00000000 200.00000000 200.00000000 200.00000000 200.00000000 200.00000000 200.00000000 200.00000000 200.00000000 200.00000000 200.00000000 200.00000000 200.00000000 200.00000000 200.00000000 200.00000000 200.00000000 200.00000000 200.00000000 200.00000000 200.00000000 200.00000000 200.00000000 200.00000000 200.00000000 200.00000000 200.00000000 200.00000000 200.00000000 200.00000000 200.00000000 200.00000000 200.00000000 200.00000000 200.00000000 200.00000000 200.00000000 200.00000000 200.00000000 200.00000000 200.00000000 200.00000000 200.00000000 200.00000000 200.00000000 200.00000000 200.00000000 200.00000000 200.00000000 200.00000000 200.00000000 200.00000000 200.00000000 200.00000000 200.00000000 200.00000000 200.00000000 200.00000000 200.00000000 200.00000000 200.00000000 200.00000000 200.00000000 200.00000000 200.00000000 200.00000000 200.00000000 