# vtk DataFile Version 3.0
VTK - Matlab export
ASCII
DATASET STRUCTURED_POINTS
DIMENSIONS 40 40 1
SPACING 1 1 1
ORIGIN 0 0 0
POINT_DATA 1600
SCALARS Proofstrength float 1
LOOKUP_TABLE default
140.71398941 140.71398941 140.71398941 140.71398941 140.71398941 140.71398941 140.71398941 140.71398941 140.71398941 140.71398941 140.71398941 140.71398941 140.71398941 140.71398941 140.71398941 140.71398941 140.71398941 140.71398941 140.71398941 140.71398941 140.71398941 140.71398941 140.71398941 140.71398941 140.71398941 140.71398941 140.71398941 140.71398941 140.71398941 140.71398941 140.71398941 140.71398941 140.71398941 140.71398941 140.71398941 140.71398941 140.71398941 140.71398941 140.71398941 140.71398941 140.71398941 140.71398941 140.71398941 140.71398941 140.71398941 140.71398941 140.71398941 140.71398941 140.71398941 140.71398941 140.71398941 140.71398941 140.71398941 140.71398941 140.71398941 140.71398941 140.71398941 140.71398941 140.71398941 140.71398941 140.71398941 140.71398941 140.71398941 140.71398941 140.71398941 140.71398941 140.71398941 140.71398941 140.71398941 140.71398941 140.71398941 140.71398941 140.71398941 140.71398941 140.71398941 140.71398941 140.71398941 140.71398941 140.71398941 140.71398941 140.71398941 140.71398941 140.71398941 140.71398941 140.71398941 140.71398941 140.71398941 140.71398941 140.71398941 140.71398941 140.71398941 140.71398941 140.71398941 140.71398941 140.71398941 140.71398941 140.71398941 140.71398941 140.71398941 140.71398941 140.71398941 140.71398941 140.71398941 140.71398941 140.71398941 140.71398941 140.71398941 140.71398941 140.71398941 140.71398941 140.71398941 140.71398941 140.71398941 140.71398941 140.71398941 140.71398941 140.71398941 140.71398941 140.71398941 140.71398941 140.71398941 140.71398941 140.71398941 140.71398941 140.71398941 140.71398941 140.71398941 140.71398941 140.71398941 140.71398941 140.71398941 140.71398941 140.71398941 140.71398941 140.71398941 140.71398941 140.71398941 140.71398941 140.71398941 140.71398941 140.71398941 140.71398941 140.71398941 140.71398941 140.71398941 140.71398941 140.71398941 140.71398941 140.71398941 140.71398941 140.71398941 140.71398941 140.71398941 140.71398941 140.71398941 140.71398941 140.71398941 140.71398941 140.71398941 140.71398941 140.71398941 140.71398941 140.71398941 140.71398941 140.71398941 140.71398941 140.71398941 140.71398941 140.71398941 140.71398941 140.71398941 140.71398941 140.71398941 140.71398941 140.71398941 140.71398941 140.71398941 140.71398941 140.71398941 140.71398941 140.71398941 140.71398941 140.71398941 140.71398941 140.71398941 140.71398941 140.71398941 140.71398941 140.71398941 140.71398941 140.71398941 140.71398941 140.71398941 140.71398941 140.71398941 140.71398941 140.71398941 140.71398941 140.71398941 140.71398941 140.71398941 140.71398941 140.71398941 140.71398941 140.71398941 140.71398941 140.71398941 140.71398941 140.71398941 140.71398941 140.71398941 140.71398941 140.71398941 140.71398941 140.71398941 140.71398941 140.71398941 140.71398941 140.71398941 140.71398941 140.71398941 140.71398941 140.71398941 140.71398941 140.71398941 140.71398941 140.71398941 140.71398941 140.71398941 140.71398941 140.71398941 140.71398941 140.71398941 140.71398941 140.71398941 140.71398941 140.71398941 140.71398941 140.71398941 140.71398941 140.71398941 140.71398941 140.71398941 140.71398941 140.71398941 140.71398941 140.71398941 140.71398941 140.71398941 140.71398941 140.71398941 140.71398941 140.71398941 140.71398941 140.71398941 140.71398941 140.71398941 140.71398941 140.71398941 140.71398941 140.71398941 140.71398941 140.71398941 140.71398941 140.71398941 140.71398941 140.71398941 140.71398941 140.71398941 140.71398941 140.71398941 140.71398941 140.71398941 140.71398941 140.71398941 140.71398941 140.71398941 140.71398941 140.71398941 140.71398941 140.71398941 140.71398941 140.71398941 140.71398941 140.71398941 140.71398941 140.71398941 140.71398941 140.71398941 140.71398941 140.71398941 140.71398941 140.71398941 140.71398941 140.71398941 140.71398941 140.71398941 140.71398941 140.71398941 140.71398941 140.71398941 140.71398941 140.71398941 140.71398941 140.71398941 140.71398941 140.71398941 140.71398941 140.71398941 140.71398941 140.71398941 140.71398941 140.71398941 140.71398941 140.71398941 140.71398941 140.71398941 140.71398941 140.71398941 140.71398941 140.71398941 140.71398941 140.71398941 140.71398941 140.71398941 140.71398941 140.71398941 140.71398941 140.71398941 140.71398941 140.71398941 140.71398941 140.71398941 140.71398941 140.71398941 140.71398941 140.71398941 140.71588441 140.71690074 140.71727128 140.71727128 140.71690074 140.71588441 140.71398941 140.71398941 140.71398941 140.71398941 140.71398941 140.71398941 140.71398941 140.71398941 140.71398941 140.71398941 140.71398941 140.71398941 140.71398941 140.71398941 140.71398941 140.71398941 140.71398941 140.71398941 140.71398941 140.71398941 140.71398941 140.71398941 140.71398941 140.71398941 140.71398941 140.71398941 140.71398941 140.71398941 140.71398941 140.71598585 140.71748198 140.71839246 140.71900235 140.71955304 140.72044673 140.72116742 140.72151364 140.72151364 140.72116742 140.72044673 140.71955304 140.71900235 140.71839246 140.71748198 140.71598585 140.71398941 140.71398941 140.71398941 140.71398941 140.71398941 140.71398941 140.71398941 140.71398941 140.71398941 140.71398941 140.71398941 140.71398941 140.71398941 140.71398941 140.71398941 140.71398941 140.71398941 140.71398941 140.71398941 140.71398941 140.71398941 140.71398941 140.71694722 140.71863889 140.72035627 140.72192681 140.72312881 140.72402440 140.72474662 140.72541879 140.72594050 140.72621139 140.72621139 140.72594050 140.72541879 140.72474662 140.72402440 140.72312881 140.72192681 140.72035627 140.71863889 140.71694722 140.71398941 140.71398941 140.71398941 140.71398941 140.71398941 140.71398941 140.71398941 140.71398941 140.71398941 140.71398941 140.71398941 140.71398941 140.71398941 140.71398941 140.71398941 140.71398941 140.71398941 140.71398941 140.71672344 140.71876126 140.72121256 140.72328622 140.72510647 140.72667788 140.72793198 140.72889095 140.72962570 140.73019795 140.73060215 140.73080991 140.73080991 140.73060215 140.73019795 140.72962570 140.72889095 140.72793198 140.72667788 140.72510647 140.72328622 140.72121256 140.71876126 140.71672344 140.71398941 140.71398941 140.71398941 140.71398941 140.71398941 140.71398941 140.71398941 140.71398941 140.71398941 140.71398941 140.71398941 140.71398941 140.71398941 140.71398941 140.71398941 140.71743533 140.72047772 140.72317851 140.72572198 140.72792696 140.72977915 140.73129029 140.73246544 140.73334222 140.73398069 140.73443528 140.73473281 140.73488045 140.73488045 140.73473281 140.73443528 140.73398069 140.73334222 140.73246544 140.73129029 140.72977915 140.72792696 140.72572198 140.72317851 140.72047772 140.71743533 140.71398941 140.71398941 140.71398941 140.71398941 140.71398941 140.71398941 140.71398941 140.71398941 140.71398941 140.71398941 140.71398941 140.71398941 140.71562688 140.71806715 140.72133156 140.72455595 140.72751277 140.73013456 140.73233733 140.73410380 140.73545904 140.73644803 140.73713461 140.73759126 140.73788297 140.73805563 140.73813586 140.73813586 140.73805563 140.73788297 140.73759126 140.73713461 140.73644803 140.73545904 140.73410380 140.73233733 140.73013456 140.72751277 140.72455595 140.72133156 140.71806715 140.71562688 140.71398941 140.71398941 140.71398941 140.71398941 140.71398941 140.71398941 140.71398941 140.71398941 140.71398941 140.71398941 140.71795237 140.72152015 140.72511371 140.72853189 140.73159887 140.73420737 140.73629820 140.73787235 140.73897847 140.73969404 140.74011136 140.74032375 140.74041260 140.74043926 140.74044309 140.74044309 140.74043926 140.74041260 140.74032375 140.74011136 140.73969404 140.73897847 140.73787235 140.73629820 140.73420737 140.73159887 140.72853189 140.72511371 140.72152015 140.71795237 140.71398941 140.71398941 140.71398941 140.71398941 140.71398941 140.71398941 140.71398941 140.71398941 140.71398941 140.71708355 140.72086338 140.72476975 140.72860448 140.73215290 140.73523881 140.73775115 140.73964776 140.74095343 140.74174534 140.74213234 140.74223518 140.74216973 140.74203454 140.74190411 140.74182703 140.74182703 140.74190411 140.74203454 140.74216973 140.74223518 140.74213234 140.74174534 140.74095343 140.73964776 140.73775115 140.73523881 140.73215290 140.72860448 140.72476975 140.72086338 140.71708355 140.71398941 140.71398941 140.71398941 140.71398941 140.71398941 140.71398941 140.71398941 140.71615771 140.71950825 140.72347546 140.72761491 140.73161722 140.73523279 140.73827611 140.74063978 140.74229875 140.74330289 140.74375855 140.74380423 140.74358700 140.74324360 140.74288787 140.74260487 140.74244990 140.74244990 140.74260487 140.74288787 140.74324360 140.74358700 140.74380423 140.74375855 140.74330289 140.74229875 140.74063978 140.73827611 140.73523279 140.73161722 140.72761491 140.72347546 140.71950825 140.71615771 140.71398941 140.71398941 140.71398941 140.71398941 140.71398941 140.71398941 140.71737758 140.72126994 140.72553525 140.72987760 140.73399751 140.73763711 140.74060808 140.74280980 140.74423362 140.74495251 140.74509880 140.74483646 140.74433460 140.74374701 140.74319953 140.74278501 140.74256326 140.74256326 140.74278501 140.74319953 140.74374701 140.74433460 140.74483646 140.74509880 140.74495251 140.74423362 140.74280980 140.74060808 140.73763711 140.73399751 140.72987760 140.72553525 140.72126994 140.71737758 140.71398941 140.71398941 140.71398941 140.71398941 140.71398941 140.71398941 140.71815818 140.72245195 140.72695412 140.73144381 140.73563797 140.73927908 140.74217969 140.74424591 140.74548230 140.74597952 140.74588943 140.74539469 140.74468021 140.74391172 140.74322321 140.74271248 140.74244205 140.74244205 140.74271248 140.74322321 140.74391172 140.74468021 140.74539469 140.74588943 140.74597952 140.74548230 140.74424591 140.74217969 140.73927908 140.73563797 140.73144381 140.72695412 140.72245195 140.71815818 140.71398941 140.71398941 140.71398941 140.71398941 140.71398941 140.71521966 140.71878866 140.72309625 140.72768654 140.73224537 140.73647369 140.74011045 140.74296852 140.74495798 140.74609067 140.74646689 140.74624897 140.74562945 140.74480149 140.74393693 140.74317383 140.74261238 140.74231634 140.74231634 140.74261238 140.74317383 140.74393693 140.74480149 140.74562945 140.74624897 140.74646689 140.74609067 140.74495798 140.74296852 140.74011045 140.73647369 140.73224537 140.72768654 140.72309625 140.71878866 140.71521966 140.71398941 140.71398941 140.71398941 140.71398941 140.71521966 140.71878866 140.72309625 140.72768654 140.73224537 140.73647369 140.74011045 140.74296852 140.74495798 140.74609067 140.74646689 140.74624897 140.74562945 140.74480149 140.74393693 140.74317383 140.74261238 140.74231634 140.74231634 140.74261238 140.74317383 140.74393693 140.74480149 140.74562945 140.74624897 140.74646689 140.74609067 140.74495798 140.74296852 140.74011045 140.73647369 140.73224537 140.72768654 140.72309625 140.71878866 140.71521966 140.71398941 140.71398941 140.71398941 140.71398941 140.71398941 140.71815818 140.72245195 140.72695412 140.73144381 140.73563797 140.73927908 140.74217969 140.74424591 140.74548230 140.74597952 140.74588943 140.74539469 140.74468021 140.74391172 140.74322321 140.74271248 140.74244205 140.74244205 140.74271248 140.74322321 140.74391172 140.74468021 140.74539469 140.74588943 140.74597952 140.74548230 140.74424591 140.74217969 140.73927908 140.73563797 140.73144381 140.72695412 140.72245195 140.71815818 140.71398941 140.71398941 140.71398941 140.71398941 140.71398941 140.71398941 140.71737758 140.72126994 140.72553525 140.72987760 140.73399751 140.73763711 140.74060808 140.74280980 140.74423362 140.74495251 140.74509880 140.74483646 140.74433460 140.74374701 140.74319953 140.74278501 140.74256326 140.74256326 140.74278501 140.74319953 140.74374701 140.74433460 140.74483646 140.74509880 140.74495251 140.74423362 140.74280980 140.74060808 140.73763711 140.73399751 140.72987760 140.72553525 140.72126994 140.71737758 140.71398941 140.71398941 140.71398941 140.71398941 140.71398941 140.71398941 140.71615771 140.71950825 140.72347546 140.72761491 140.73161722 140.73523279 140.73827611 140.74063978 140.74229875 140.74330289 140.74375855 140.74380423 140.74358700 140.74324360 140.74288787 140.74260487 140.74244990 140.74244990 140.74260487 140.74288787 140.74324360 140.74358700 140.74380423 140.74375855 140.74330289 140.74229875 140.74063978 140.73827611 140.73523279 140.73161722 140.72761491 140.72347546 140.71950825 140.71615771 140.71398941 140.71398941 140.71398941 140.71398941 140.71398941 140.71398941 140.71398941 140.71708355 140.72086338 140.72476975 140.72860448 140.73215290 140.73523881 140.73775115 140.73964776 140.74095343 140.74174534 140.74213234 140.74223518 140.74216973 140.74203454 140.74190411 140.74182703 140.74182703 140.74190411 140.74203454 140.74216973 140.74223518 140.74213234 140.74174534 140.74095343 140.73964776 140.73775115 140.73523881 140.73215290 140.72860448 140.72476975 140.72086338 140.71708355 140.71398941 140.71398941 140.71398941 140.71398941 140.71398941 140.71398941 140.71398941 140.71398941 140.71398941 140.71795237 140.72152015 140.72511371 140.72853189 140.73159887 140.73420737 140.73629820 140.73787235 140.73897847 140.73969404 140.74011136 140.74032375 140.74041260 140.74043926 140.74044309 140.74044309 140.74043926 140.74041260 140.74032375 140.74011136 140.73969404 140.73897847 140.73787235 140.73629820 140.73420737 140.73159887 140.72853189 140.72511371 140.72152015 140.71795237 140.71398941 140.71398941 140.71398941 140.71398941 140.71398941 140.71398941 140.71398941 140.71398941 140.71398941 140.71398941 140.71562688 140.71806715 140.72133156 140.72455595 140.72751277 140.73013456 140.73233733 140.73410380 140.73545904 140.73644803 140.73713461 140.73759126 140.73788297 140.73805563 140.73813586 140.73813586 140.73805563 140.73788297 140.73759126 140.73713461 140.73644803 140.73545904 140.73410380 140.73233733 140.73013456 140.72751277 140.72455595 140.72133156 140.71806715 140.71562688 140.71398941 140.71398941 140.71398941 140.71398941 140.71398941 140.71398941 140.71398941 140.71398941 140.71398941 140.71398941 140.71398941 140.71398941 140.71743533 140.72047772 140.72317851 140.72572198 140.72792696 140.72977915 140.73129029 140.73246544 140.73334222 140.73398069 140.73443528 140.73473281 140.73488045 140.73488045 140.73473281 140.73443528 140.73398069 140.73334222 140.73246544 140.73129029 140.72977915 140.72792696 140.72572198 140.72317851 140.72047772 140.71743533 140.71398941 140.71398941 140.71398941 140.71398941 140.71398941 140.71398941 140.71398941 140.71398941 140.71398941 140.71398941 140.71398941 140.71398941 140.71398941 140.71398941 140.71398941 140.71672344 140.71876126 140.72121256 140.72328622 140.72510647 140.72667788 140.72793198 140.72889095 140.72962570 140.73019795 140.73060215 140.73080991 140.73080991 140.73060215 140.73019795 140.72962570 140.72889095 140.72793198 140.72667788 140.72510647 140.72328622 140.72121256 140.71876126 140.71672344 140.71398941 140.71398941 140.71398941 140.71398941 140.71398941 140.71398941 140.71398941 140.71398941 140.71398941 140.71398941 140.71398941 140.71398941 140.71398941 140.71398941 140.71398941 140.71398941 140.71398941 140.71398941 140.71694722 140.71863889 140.72035627 140.72192681 140.72312881 140.72402440 140.72474662 140.72541879 140.72594050 140.72621139 140.72621139 140.72594050 140.72541879 140.72474662 140.72402440 140.72312881 140.72192681 140.72035627 140.71863889 140.71694722 140.71398941 140.71398941 140.71398941 140.71398941 140.71398941 140.71398941 140.71398941 140.71398941 140.71398941 140.71398941 140.71398941 140.71398941 140.71398941 140.71398941 140.71398941 140.71398941 140.71398941 140.71398941 140.71398941 140.71398941 140.71398941 140.71398941 140.71598585 140.71748198 140.71839246 140.71900235 140.71955304 140.72044673 140.72116742 140.72151364 140.72151364 140.72116742 140.72044673 140.71955304 140.71900235 140.71839246 140.71748198 140.71598585 140.71398941 140.71398941 140.71398941 140.71398941 140.71398941 140.71398941 140.71398941 140.71398941 140.71398941 140.71398941 140.71398941 140.71398941 140.71398941 140.71398941 140.71398941 140.71398941 140.71398941 140.71398941 140.71398941 140.71398941 140.71398941 140.71398941 140.71398941 140.71398941 140.71398941 140.71398941 140.71398941 140.71398941 140.71398941 140.71588441 140.71690074 140.71727128 140.71727128 140.71690074 140.71588441 140.71398941 140.71398941 140.71398941 140.71398941 140.71398941 140.71398941 140.71398941 140.71398941 140.71398941 140.71398941 140.71398941 140.71398941 140.71398941 140.71398941 140.71398941 140.71398941 140.71398941 140.71398941 140.71398941 140.71398941 140.71398941 140.71398941 140.71398941 140.71398941 140.71398941 140.71398941 140.71398941 140.71398941 140.71398941 140.71398941 140.71398941 140.71398941 140.71398941 140.71398941 140.71398941 140.71398941 140.71398941 140.71398941 140.71398941 140.71398941 140.71398941 140.71398941 140.71398941 140.71398941 140.71398941 140.71398941 140.71398941 140.71398941 140.71398941 140.71398941 140.71398941 140.71398941 140.71398941 140.71398941 140.71398941 140.71398941 140.71398941 140.71398941 140.71398941 140.71398941 140.71398941 140.71398941 140.71398941 140.71398941 140.71398941 140.71398941 140.71398941 140.71398941 140.71398941 140.71398941 140.71398941 140.71398941 140.71398941 140.71398941 140.71398941 140.71398941 140.71398941 140.71398941 140.71398941 140.71398941 140.71398941 140.71398941 140.71398941 140.71398941 140.71398941 140.71398941 140.71398941 140.71398941 140.71398941 140.71398941 140.71398941 140.71398941 140.71398941 140.71398941 140.71398941 140.71398941 140.71398941 140.71398941 140.71398941 140.71398941 140.71398941 140.71398941 140.71398941 140.71398941 140.71398941 140.71398941 140.71398941 140.71398941 140.71398941 140.71398941 140.71398941 140.71398941 140.71398941 140.71398941 140.71398941 140.71398941 140.71398941 140.71398941 140.71398941 140.71398941 140.71398941 140.71398941 140.71398941 140.71398941 140.71398941 140.71398941 140.71398941 140.71398941 140.71398941 140.71398941 140.71398941 140.71398941 140.71398941 140.71398941 140.71398941 140.71398941 140.71398941 140.71398941 140.71398941 140.71398941 140.71398941 140.71398941 140.71398941 140.71398941 140.71398941 140.71398941 140.71398941 140.71398941 140.71398941 140.71398941 140.71398941 140.71398941 140.71398941 140.71398941 140.71398941 140.71398941 140.71398941 140.71398941 140.71398941 140.71398941 140.71398941 140.71398941 140.71398941 140.71398941 140.71398941 140.71398941 140.71398941 140.71398941 140.71398941 140.71398941 140.71398941 140.71398941 140.71398941 140.71398941 140.71398941 140.71398941 140.71398941 140.71398941 140.71398941 140.71398941 140.71398941 140.71398941 140.71398941 140.71398941 140.71398941 140.71398941 140.71398941 140.71398941 140.71398941 140.71398941 140.71398941 140.71398941 140.71398941 140.71398941 140.71398941 140.71398941 140.71398941 140.71398941 140.71398941 140.71398941 140.71398941 140.71398941 140.71398941 140.71398941 140.71398941 140.71398941 140.71398941 140.71398941 140.71398941 140.71398941 140.71398941 140.71398941 140.71398941 140.71398941 140.71398941 140.71398941 140.71398941 140.71398941 140.71398941 140.71398941 140.71398941 140.71398941 140.71398941 140.71398941 140.71398941 140.71398941 140.71398941 140.71398941 140.71398941 140.71398941 140.71398941 140.71398941 140.71398941 140.71398941 140.71398941 140.71398941 140.71398941 140.71398941 140.71398941 140.71398941 140.71398941 140.71398941 140.71398941 140.71398941 140.71398941 140.71398941 140.71398941 140.71398941 140.71398941 140.71398941 140.71398941 140.71398941 140.71398941 140.71398941 140.71398941 140.71398941 140.71398941 140.71398941 140.71398941 140.71398941 140.71398941 140.71398941 140.71398941 140.71398941 140.71398941 140.71398941 140.71398941 140.71398941 140.71398941 140.71398941 140.71398941 140.71398941 140.71398941 140.71398941 140.71398941 140.71398941 140.71398941 140.71398941 140.71398941 140.71398941 140.71398941 140.71398941 140.71398941 140.71398941 140.71398941 140.71398941 140.71398941 140.71398941 140.71398941 140.71398941 140.71398941 140.71398941 140.71398941 140.71398941 140.71398941 140.71398941 140.71398941 140.71398941 140.71398941 140.71398941 140.71398941 140.71398941 140.71398941 140.71398941 140.71398941 140.71398941 140.71398941 140.71398941 140.71398941 140.71398941 140.71398941 140.71398941 140.71398941 140.71398941 140.71398941 140.71398941 140.71398941 140.71398941 140.71398941 140.71398941 140.71398941 140.71398941 140.71398941 140.71398941 140.71398941 140.71398941 140.71398941 140.71398941 140.71398941 140.71398941 140.71398941 140.71398941 140.71398941 140.71398941 140.71398941 140.71398941 140.71398941 