# vtk DataFile Version 3.0
VTK - Matlab export
ASCII
DATASET STRUCTURED_POINTS
DIMENSIONS 40 40 1
SPACING 1 1 1
ORIGIN 0 0 0
POINT_DATA 1600
SCALARS Temperature float 1
LOOKUP_TABLE default
200.00000000 200.00000000 200.00000000 200.00000000 200.00000000 200.00000000 200.00000000 200.00000000 200.00000000 200.00000000 200.00000000 200.00000000 200.00000000 200.00000000 200.00000000 200.00000000 200.00000000 200.00000000 200.00000000 200.00000000 200.00000000 200.00000000 200.00000000 200.00000000 200.00000000 200.00000000 200.00000000 200.00000000 200.00000000 200.00000000 200.00000000 200.00000000 200.00000000 200.00000000 200.00000000 200.00000000 200.00000000 200.00000000 200.00000000 200.00000000 200.00000000 200.00000000 200.00000000 200.00000000 200.00000000 200.00000000 200.00000000 200.00000000 200.00000000 200.00000000 200.00000000 200.00000000 200.00000000 200.00000000 200.00000000 200.00000000 200.00000000 200.00000000 200.00000000 200.00000000 200.00000000 200.00000000 200.00000000 200.00000000 200.00000000 200.00000000 200.00000000 200.00000000 200.00000000 200.00000000 200.00000000 200.00000000 200.00000000 200.00000000 200.00000000 200.00000000 200.00000000 200.00000000 200.00000000 200.00000000 200.00000000 200.00000000 200.00000000 200.00000000 200.00000000 200.00000000 200.00000000 200.00000000 200.00000000 200.00000000 200.00000000 200.00000000 200.00000000 200.00000000 200.00000000 200.00000000 200.00000000 200.00000000 200.00000000 200.00000000 200.00000000 200.00000000 200.00000000 200.00000000 200.00000000 200.00000000 200.00000000 200.00000000 200.00000000 200.00000000 200.00000000 200.00000000 200.00000000 200.00000000 200.00000000 200.00000000 200.00000000 200.00000000 200.00000000 200.00000000 200.00000000 200.00000000 200.00000000 200.00000000 200.00000000 200.00000000 200.00000000 200.00000000 200.00000000 200.00000000 200.00000000 200.00000000 200.00000000 200.00000000 200.00000000 200.00000000 200.00000000 200.00000000 200.00000000 200.00000000 200.00000000 200.00000000 200.00000000 200.00000000 200.00000000 200.00000000 200.00000000 200.00000000 200.00000000 200.00000000 200.00000000 200.00000000 200.00000000 200.00000000 200.00000000 200.00000000 200.00000000 200.00000000 200.00000000 200.00000000 200.00000000 200.00000000 200.00000000 200.00000000 200.00000000 200.00000000 200.00000000 200.00000000 200.00000000 200.00000000 200.00000000 200.00000000 200.00000000 200.00000000 200.00000000 200.00000000 200.00000000 200.00000000 200.00000000 200.00000000 200.00000000 200.00000000 200.00000000 200.00000000 200.00000000 200.00000000 200.00000000 200.00000000 200.00000000 200.00000000 200.00000000 200.00000000 200.00000000 200.00000000 200.00000000 200.00000000 200.00000000 200.00000000 200.00000000 200.00000000 200.00000000 200.00000000 200.00000000 200.00000000 200.00000000 200.00000000 200.00000000 200.00000000 200.00000000 200.00000000 200.00000000 200.00000000 200.00000000 200.00000000 200.00000000 200.00000000 200.00000000 200.00000000 200.00000000 200.00000000 200.00000000 200.00000000 200.00000000 200.00000000 200.00000000 200.00000000 200.00000000 200.00000000 200.00000000 200.00000000 200.00000000 200.00000000 200.00000000 200.00000000 200.00000000 200.00000000 200.00000000 200.00000000 200.00000000 200.00000000 200.00000000 200.00000000 200.00000000 200.00000000 200.00000000 200.00000000 200.00000000 200.00000000 200.00000000 200.00000000 200.00000000 200.00000000 200.00000000 200.00000000 200.00000000 200.00000000 200.00000000 200.00000000 200.00000000 200.00000000 200.00000000 200.00000000 200.00000000 200.00000000 200.00000000 200.00000000 200.00000000 200.00000000 200.00000000 200.00000000 200.00000000 200.00000000 200.00000000 200.00000000 200.00000000 200.00000000 200.00000000 200.00000000 200.00000000 200.00000000 200.00000000 200.00000000 200.00000000 200.00000000 200.00000000 200.00000000 200.00000000 200.00000000 200.00000000 200.00000000 200.00000000 200.00000000 200.00000000 200.00000000 200.00000000 200.00000000 200.00000000 200.00000000 200.00000000 200.00000000 200.00000000 200.00000000 200.00000000 200.00000000 200.00000000 200.00000000 200.00000000 200.00000000 200.00000000 200.00000000 200.00000000 200.00000000 200.00000000 200.00000000 200.00000000 200.00000000 200.00000000 200.00000000 200.00000000 200.00000000 200.00000000 200.00000000 200.00000000 200.00000000 200.00000000 200.00000000 200.00000000 200.00000000 200.00000000 200.00000000 200.00000000 200.00000000 200.00000000 200.00000000 200.00000000 200.00000000 200.00000000 222.43057428 234.49284360 238.90944643 238.90944643 234.49284360 222.43057428 200.00000000 200.00000000 200.00000000 200.00000000 200.00000000 200.00000000 200.00000000 200.00000000 200.00000000 200.00000000 200.00000000 200.00000000 200.00000000 200.00000000 200.00000000 200.00000000 200.00000000 200.00000000 200.00000000 200.00000000 200.00000000 200.00000000 200.00000000 200.00000000 200.00000000 200.00000000 200.00000000 200.00000000 200.00000000 222.52680215 239.82868059 250.78082959 258.47292004 265.53836692 276.55977296 285.40960510 289.68111851 289.68111851 285.40960510 276.55977296 265.53836692 258.47292004 250.78082959 239.82868059 222.52680215 200.00000000 200.00000000 200.00000000 200.00000000 200.00000000 200.00000000 200.00000000 200.00000000 200.00000000 200.00000000 200.00000000 200.00000000 200.00000000 200.00000000 200.00000000 200.00000000 200.00000000 200.00000000 200.00000000 200.00000000 200.00000000 200.00000000 232.31591562 251.47907020 271.56990843 290.53822190 305.72196462 317.61468194 327.50764960 336.61712749 343.62296537 347.26520007 347.26520007 343.62296537 336.61712749 327.50764960 317.61468194 305.72196462 290.53822190 271.56990843 251.47907020 232.31591562 200.00000000 200.00000000 200.00000000 200.00000000 200.00000000 200.00000000 200.00000000 200.00000000 200.00000000 200.00000000 200.00000000 200.00000000 200.00000000 200.00000000 200.00000000 200.00000000 200.00000000 200.00000000 228.83221311 251.03212569 278.51365611 302.79388113 325.14399864 345.40144977 362.52669546 376.45759101 387.67605953 396.59615168 402.92699092 406.19386209 406.19386209 402.92699092 396.59615168 387.67605953 376.45759101 362.52669546 345.40144977 325.14399864 302.79388113 278.51365611 251.03212569 228.83221311 200.00000000 200.00000000 200.00000000 200.00000000 200.00000000 200.00000000 200.00000000 200.00000000 200.00000000 200.00000000 200.00000000 200.00000000 200.00000000 200.00000000 200.00000000 235.61598409 267.97518306 297.87546956 327.33861409 354.37954919 378.66487365 400.00702118 418.05878039 432.79915590 444.46835337 453.29707715 459.28805478 462.32092462 462.32092462 459.28805478 453.29707715 444.46835337 432.79915590 418.05878039 400.00702118 378.66487365 354.37954919 327.33861409 297.87546956 267.97518306 235.61598409 200.00000000 200.00000000 200.00000000 200.00000000 200.00000000 200.00000000 200.00000000 200.00000000 200.00000000 200.00000000 200.00000000 200.00000000 216.37875142 241.23238286 275.29853045 310.16458502 343.73848602 375.39777633 404.14785847 429.51932883 451.34001799 469.55515878 484.28488894 495.77407838 504.26255411 509.88728762 512.69417499 512.69417499 509.88728762 504.26255411 495.77407838 484.28488894 469.55515878 451.34001799 429.51932883 404.14785847 375.39777633 343.73848602 310.16458502 275.29853045 241.23238286 216.37875142 200.00000000 200.00000000 200.00000000 200.00000000 200.00000000 200.00000000 200.00000000 200.00000000 200.00000000 200.00000000 239.38524076 275.67748992 313.49493620 351.15513501 387.10155217 420.27536894 449.88150181 475.53147065 497.16118549 514.90694322 529.04046896 539.89507622 547.78068889 552.92558127 555.46677036 555.46677036 552.92558127 547.78068889 539.89507622 529.04046896 514.90694322 497.16118549 475.53147065 449.88150181 420.27536894 387.10155217 351.15513501 313.49493620 275.67748992 239.38524076 200.00000000 200.00000000 200.00000000 200.00000000 200.00000000 200.00000000 200.00000000 200.00000000 200.00000000 230.24340584 267.83776363 307.76319497 348.55678893 388.47724671 425.98870173 459.97232019 489.74022729 515.03598464 535.94614686 552.77641231 565.94474366 575.89132427 583.00700999 587.59035895 589.83512243 589.83512243 587.59035895 583.00700999 575.89132427 565.94474366 552.77641231 535.94614686 515.03598464 489.74022729 459.97232019 425.98870173 388.47724671 348.55678893 307.76319497 267.83776363 230.24340584 200.00000000 200.00000000 200.00000000 200.00000000 200.00000000 200.00000000 200.00000000 220.92835650 253.63777491 293.14470828 335.67192528 378.72942672 420.28634907 458.73691865 492.97902824 522.43150088 546.98395058 566.88186419 582.58598883 594.64509140 603.59753779 609.90527276 613.91928997 615.86989095 615.86989095 613.91928997 609.90527276 603.59753779 594.64509140 582.58598883 566.88186419 546.98395058 522.43150088 492.97902824 458.73691865 420.28634907 378.72942672 335.67192528 293.14470828 253.63777491 220.92835650 200.00000000 200.00000000 200.00000000 200.00000000 200.00000000 200.00000000 232.59522496 270.49580627 312.98128286 357.77800299 402.54154251 445.20021984 484.13706324 518.29917363 547.21171385 570.90093466 589.75465085 604.36379777 615.38285812 623.42777309 629.01399479 632.52834372 634.22362394 634.22362394 632.52834372 629.01399479 623.42777309 615.38285812 604.36379777 589.75465085 570.90093466 547.21171385 518.29917363 484.13706324 445.20021984 402.54154251 357.77800299 312.98128286 270.49580627 232.59522496 200.00000000 200.00000000 200.00000000 200.00000000 200.00000000 200.00000000 240.01136922 281.74561410 326.59210786 373.04333100 418.95070841 462.27363529 501.41524630 535.37559832 563.76714838 586.72187669 604.73394629 618.48794341 628.71192466 636.07416479 641.12460527 644.27156738 645.78029844 645.78029844 644.27156738 641.12460527 636.07416479 628.71192466 618.48794341 604.73394629 586.72187669 563.76714838 535.37559832 501.41524630 462.27363529 418.95070841 373.04333100 326.59210786 281.74561410 240.01136922 200.00000000 200.00000000 200.00000000 200.00000000 200.00000000 211.74945878 245.98762589 287.85732478 333.60096901 380.84563781 427.31185209 470.94065304 510.14483803 543.95589600 572.03523252 594.57239735 612.11824809 625.40622138 635.20192250 642.19970459 646.96613107 649.91938454 651.33008758 651.33008758 649.91938454 646.96613107 642.19970459 635.20192250 625.40622138 612.11824809 594.57239735 572.03523252 543.95589600 510.14483803 470.94065304 427.31185209 380.84563781 333.60096901 287.85732478 245.98762589 211.74945878 200.00000000 200.00000000 200.00000000 200.00000000 211.74945878 245.98762589 287.85732478 333.60096901 380.84563781 427.31185209 470.94065304 510.14483803 543.95589600 572.03523252 594.57239735 612.11824809 625.40622138 635.20192250 642.19970459 646.96613107 649.91938454 651.33008758 651.33008758 649.91938454 646.96613107 642.19970459 635.20192250 625.40622138 612.11824809 594.57239735 572.03523252 543.95589600 510.14483803 470.94065304 427.31185209 380.84563781 333.60096901 287.85732478 245.98762589 211.74945878 200.00000000 200.00000000 200.00000000 200.00000000 200.00000000 240.01136922 281.74561410 326.59210786 373.04333100 418.95070841 462.27363529 501.41524630 535.37559832 563.76714838 586.72187669 604.73394629 618.48794341 628.71192466 636.07416479 641.12460527 644.27156738 645.78029844 645.78029844 644.27156738 641.12460527 636.07416479 628.71192466 618.48794341 604.73394629 586.72187669 563.76714838 535.37559832 501.41524630 462.27363529 418.95070841 373.04333100 326.59210786 281.74561410 240.01136922 200.00000000 200.00000000 200.00000000 200.00000000 200.00000000 200.00000000 232.59522496 270.49580627 312.98128286 357.77800299 402.54154251 445.20021984 484.13706324 518.29917363 547.21171385 570.90093466 589.75465085 604.36379777 615.38285812 623.42777309 629.01399479 632.52834372 634.22362394 634.22362394 632.52834372 629.01399479 623.42777309 615.38285812 604.36379777 589.75465085 570.90093466 547.21171385 518.29917363 484.13706324 445.20021984 402.54154251 357.77800299 312.98128286 270.49580627 232.59522496 200.00000000 200.00000000 200.00000000 200.00000000 200.00000000 200.00000000 220.92835650 253.63777491 293.14470828 335.67192528 378.72942672 420.28634907 458.73691865 492.97902824 522.43150088 546.98395058 566.88186419 582.58598883 594.64509140 603.59753779 609.90527276 613.91928997 615.86989095 615.86989095 613.91928997 609.90527276 603.59753779 594.64509140 582.58598883 566.88186419 546.98395058 522.43150088 492.97902824 458.73691865 420.28634907 378.72942672 335.67192528 293.14470828 253.63777491 220.92835650 200.00000000 200.00000000 200.00000000 200.00000000 200.00000000 200.00000000 200.00000000 230.24340584 267.83776363 307.76319497 348.55678893 388.47724671 425.98870173 459.97232019 489.74022729 515.03598464 535.94614686 552.77641231 565.94474366 575.89132427 583.00700999 587.59035895 589.83512243 589.83512243 587.59035895 583.00700999 575.89132427 565.94474366 552.77641231 535.94614686 515.03598464 489.74022729 459.97232019 425.98870173 388.47724671 348.55678893 307.76319497 267.83776363 230.24340584 200.00000000 200.00000000 200.00000000 200.00000000 200.00000000 200.00000000 200.00000000 200.00000000 200.00000000 239.38524076 275.67748992 313.49493620 351.15513501 387.10155217 420.27536894 449.88150181 475.53147065 497.16118549 514.90694322 529.04046896 539.89507622 547.78068889 552.92558127 555.46677036 555.46677036 552.92558127 547.78068889 539.89507622 529.04046896 514.90694322 497.16118549 475.53147065 449.88150181 420.27536894 387.10155217 351.15513501 313.49493620 275.67748992 239.38524076 200.00000000 200.00000000 200.00000000 200.00000000 200.00000000 200.00000000 200.00000000 200.00000000 200.00000000 200.00000000 216.37875142 241.23238286 275.29853045 310.16458502 343.73848602 375.39777633 404.14785847 429.51932883 451.34001799 469.55515878 484.28488894 495.77407838 504.26255411 509.88728762 512.69417499 512.69417499 509.88728762 504.26255411 495.77407838 484.28488894 469.55515878 451.34001799 429.51932883 404.14785847 375.39777633 343.73848602 310.16458502 275.29853045 241.23238286 216.37875142 200.00000000 200.00000000 200.00000000 200.00000000 200.00000000 200.00000000 200.00000000 200.00000000 200.00000000 200.00000000 200.00000000 200.00000000 235.61598409 267.97518306 297.87546956 327.33861409 354.37954919 378.66487365 400.00702118 418.05878039 432.79915590 444.46835337 453.29707715 459.28805478 462.32092462 462.32092462 459.28805478 453.29707715 444.46835337 432.79915590 418.05878039 400.00702118 378.66487365 354.37954919 327.33861409 297.87546956 267.97518306 235.61598409 200.00000000 200.00000000 200.00000000 200.00000000 200.00000000 200.00000000 200.00000000 200.00000000 200.00000000 200.00000000 200.00000000 200.00000000 200.00000000 200.00000000 200.00000000 228.83221311 251.03212569 278.51365611 302.79388113 325.14399864 345.40144977 362.52669546 376.45759101 387.67605953 396.59615168 402.92699092 406.19386209 406.19386209 402.92699092 396.59615168 387.67605953 376.45759101 362.52669546 345.40144977 325.14399864 302.79388113 278.51365611 251.03212569 228.83221311 200.00000000 200.00000000 200.00000000 200.00000000 200.00000000 200.00000000 200.00000000 200.00000000 200.00000000 200.00000000 200.00000000 200.00000000 200.00000000 200.00000000 200.00000000 200.00000000 200.00000000 200.00000000 232.31591562 251.47907020 271.56990843 290.53822190 305.72196462 317.61468194 327.50764960 336.61712749 343.62296537 347.26520007 347.26520007 343.62296537 336.61712749 327.50764960 317.61468194 305.72196462 290.53822190 271.56990843 251.47907020 232.31591562 200.00000000 200.00000000 200.00000000 200.00000000 200.00000000 200.00000000 200.00000000 200.00000000 200.00000000 200.00000000 200.00000000 200.00000000 200.00000000 200.00000000 200.00000000 200.00000000 200.00000000 200.00000000 200.00000000 200.00000000 200.00000000 200.00000000 222.52680215 239.82868059 250.78082959 258.47292004 265.53836692 276.55977296 285.40960510 289.68111851 289.68111851 285.40960510 276.55977296 265.53836692 258.47292004 250.78082959 239.82868059 222.52680215 200.00000000 200.00000000 200.00000000 200.00000000 200.00000000 200.00000000 200.00000000 200.00000000 200.00000000 200.00000000 200.00000000 200.00000000 200.00000000 200.00000000 200.00000000 200.00000000 200.00000000 200.00000000 200.00000000 200.00000000 200.00000000 200.00000000 200.00000000 200.00000000 200.00000000 200.00000000 200.00000000 200.00000000 200.00000000 222.43057428 234.49284360 238.90944643 238.90944643 234.49284360 222.43057428 200.00000000 200.00000000 200.00000000 200.00000000 200.00000000 200.00000000 200.00000000 200.00000000 200.00000000 200.00000000 200.00000000 200.00000000 200.00000000 200.00000000 200.00000000 200.00000000 200.00000000 200.00000000 200.00000000 200.00000000 200.00000000 200.00000000 200.00000000 200.00000000 200.00000000 200.00000000 200.00000000 200.00000000 200.00000000 200.00000000 200.00000000 200.00000000 200.00000000 200.00000000 200.00000000 200.00000000 200.00000000 200.00000000 200.00000000 200.00000000 200.00000000 200.00000000 200.00000000 200.00000000 200.00000000 200.00000000 200.00000000 200.00000000 200.00000000 200.00000000 200.00000000 200.00000000 200.00000000 200.00000000 200.00000000 200.00000000 200.00000000 200.00000000 200.00000000 200.00000000 200.00000000 200.00000000 200.00000000 200.00000000 200.00000000 200.00000000 200.00000000 200.00000000 200.00000000 200.00000000 200.00000000 200.00000000 200.00000000 200.00000000 200.00000000 200.00000000 200.00000000 200.00000000 200.00000000 200.00000000 200.00000000 200.00000000 200.00000000 200.00000000 200.00000000 200.00000000 200.00000000 200.00000000 200.00000000 200.00000000 200.00000000 200.00000000 200.00000000 200.00000000 200.00000000 200.00000000 200.00000000 200.00000000 200.00000000 200.00000000 200.00000000 200.00000000 200.00000000 200.00000000 200.00000000 200.00000000 200.00000000 200.00000000 200.00000000 200.00000000 200.00000000 200.00000000 200.00000000 200.00000000 200.00000000 200.00000000 200.00000000 200.00000000 200.00000000 200.00000000 200.00000000 200.00000000 200.00000000 200.00000000 200.00000000 200.00000000 200.00000000 200.00000000 200.00000000 200.00000000 200.00000000 200.00000000 200.00000000 200.00000000 200.00000000 200.00000000 200.00000000 200.00000000 200.00000000 200.00000000 200.00000000 200.00000000 200.00000000 200.00000000 200.00000000 200.00000000 200.00000000 200.00000000 200.00000000 200.00000000 200.00000000 200.00000000 200.00000000 200.00000000 200.00000000 200.00000000 200.00000000 200.00000000 200.00000000 200.00000000 200.00000000 200.00000000 200.00000000 200.00000000 200.00000000 200.00000000 200.00000000 200.00000000 200.00000000 200.00000000 200.00000000 200.00000000 200.00000000 200.00000000 200.00000000 200.00000000 200.00000000 200.00000000 200.00000000 200.00000000 200.00000000 200.00000000 200.00000000 200.00000000 200.00000000 200.00000000 200.00000000 200.00000000 200.00000000 200.00000000 200.00000000 200.00000000 200.00000000 200.00000000 200.00000000 200.00000000 200.00000000 200.00000000 200.00000000 200.00000000 200.00000000 200.00000000 200.00000000 200.00000000 200.00000000 200.00000000 200.00000000 200.00000000 200.00000000 200.00000000 200.00000000 200.00000000 200.00000000 200.00000000 200.00000000 200.00000000 200.00000000 200.00000000 200.00000000 200.00000000 200.00000000 200.00000000 200.00000000 200.00000000 200.00000000 200.00000000 200.00000000 200.00000000 200.00000000 200.00000000 200.00000000 200.00000000 200.00000000 200.00000000 200.00000000 200.00000000 200.00000000 200.00000000 200.00000000 200.00000000 200.00000000 200.00000000 200.00000000 200.00000000 200.00000000 200.00000000 200.00000000 200.00000000 200.00000000 200.00000000 200.00000000 200.00000000 200.00000000 200.00000000 200.00000000 200.00000000 200.00000000 200.00000000 200.00000000 200.00000000 200.00000000 200.00000000 200.00000000 200.00000000 200.00000000 200.00000000 200.00000000 200.00000000 200.00000000 200.00000000 200.00000000 200.00000000 200.00000000 200.00000000 200.00000000 200.00000000 200.00000000 200.00000000 200.00000000 200.00000000 200.00000000 200.00000000 200.00000000 200.00000000 200.00000000 200.00000000 200.00000000 200.00000000 200.00000000 200.00000000 200.00000000 200.00000000 200.00000000 200.00000000 200.00000000 200.00000000 200.00000000 200.00000000 200.00000000 200.00000000 200.00000000 200.00000000 200.00000000 200.00000000 200.00000000 200.00000000 200.00000000 200.00000000 200.00000000 200.00000000 200.00000000 200.00000000 200.00000000 200.00000000 200.00000000 200.00000000 200.00000000 200.00000000 200.00000000 200.00000000 200.00000000 200.00000000 200.00000000 200.00000000 200.00000000 200.00000000 200.00000000 200.00000000 200.00000000 200.00000000 200.00000000 200.00000000 200.00000000 200.00000000 200.00000000 200.00000000 200.00000000 