# vtk DataFile Version 3.0
VTK - Matlab export
ASCII
DATASET STRUCTURED_POINTS
DIMENSIONS 40 40 1
SPACING 1 1 1
ORIGIN 0 0 0
POINT_DATA 1600
SCALARS lambda-2 float 1
LOOKUP_TABLE default
8.35311101 8.35311101 8.35311101 8.35311101 8.35311101 8.35311101 8.35311101 8.35311101 8.35311101 8.35311101 8.35311101 8.35311101 8.35311101 8.35311101 8.35311101 8.35311101 8.35311101 8.35311101 8.35311101 8.35311101 8.35311101 8.35311101 8.35311101 8.35311101 8.35311101 8.35311101 8.35311101 8.35311101 8.35311101 8.35311101 8.35311101 8.35311101 8.35311101 8.35311101 8.35311101 8.35311101 8.35311101 8.35311101 8.35311101 8.35311101 8.35311101 8.35311101 8.35311101 8.35311101 8.35311101 8.35311101 8.35311101 8.35311101 8.35311101 8.35311101 8.35311101 8.35311101 8.35311101 8.35311101 8.35311101 8.35311101 8.35311101 8.35311101 8.35311101 8.35311101 8.35311101 8.35311101 8.35311101 8.35311101 8.35311101 8.35311101 8.35311101 8.35311101 8.35311101 8.35311101 8.35311101 8.35311101 8.35311101 8.35311101 8.35311101 8.35311101 8.35311101 8.35311101 8.35311101 8.35311101 8.35311101 8.35311101 8.35311101 8.35311101 8.35311101 8.35311101 8.35311101 8.35311101 8.35311101 8.35311101 8.35311101 8.35311101 8.35311101 8.35311101 8.35311101 8.35311101 8.35311101 8.35311101 8.35311101 8.35311101 8.35311101 8.35311101 8.35311101 8.35311101 8.35311101 8.35311101 8.35311101 8.35311101 8.35311101 8.35311101 8.35311101 8.35311101 8.35311101 8.35311101 8.35311101 8.35311101 8.35311101 8.35311101 8.35311101 8.35311101 8.35311101 8.35311101 8.35311101 8.35311101 8.35311101 8.35311101 8.35311101 8.35311101 8.35311101 8.35311101 8.35311101 8.35311101 8.35311101 8.35311101 8.35311101 8.35311101 8.35311101 8.35311101 8.35311101 8.35311101 8.35311101 8.35311101 8.35311101 8.35311101 8.35311101 8.35311101 8.35311101 8.35311101 8.35311101 8.35311101 8.35311101 8.35311101 8.35311101 8.35311101 8.35311101 8.35311101 8.35311101 8.35311101 8.35311101 8.35311101 8.35311101 8.35311101 8.35311101 8.35311101 8.35311101 8.35311101 8.35311101 8.35311101 8.35311101 8.35311101 8.35311101 8.35311101 8.35311101 8.35311101 8.35311101 8.35311101 8.35311101 8.35311101 8.35311101 8.35311101 8.35311101 8.35311101 8.35311101 8.35311101 8.35311101 8.35311101 8.35311101 8.35311101 8.35311101 8.35311101 8.35311101 8.35311101 8.35311101 8.35311101 8.35311101 8.35311101 8.35311101 8.35311101 8.35311101 8.35311101 8.35311101 8.35311101 8.35311101 8.35311101 8.35311101 8.35311101 8.35311101 8.35311101 8.35311101 8.35311101 8.35311101 8.35311101 8.35311101 8.35311101 8.35311101 8.35311101 8.35311101 8.35311101 8.35311101 8.35311101 8.35311101 8.35311101 8.35311101 8.35311101 8.35311101 8.35311101 8.35311101 8.35311101 8.35311101 8.35311101 8.35311101 8.35311101 8.35311101 8.35311101 8.35311101 8.35311101 8.35311101 8.35311101 8.35311101 8.35311101 8.35311101 8.35311101 8.35311101 8.35311101 8.35311101 8.35311101 8.35311101 8.35311101 8.35311101 8.35311101 8.35311101 8.35311101 8.35311101 8.35311101 8.35311101 8.35311101 8.35311101 8.35311101 8.35311101 8.35311101 8.35311101 8.35311101 8.35311101 8.35311101 8.35311101 8.35311101 8.35311101 8.35311101 8.35311101 8.35311101 8.35311101 8.35311101 8.35311101 8.35311101 8.35311101 8.35311101 8.35311101 8.35311101 8.35311101 8.35311101 8.35311101 8.35311101 8.35311101 8.35311101 8.35311101 8.35311101 8.35311101 8.35311101 8.35311101 8.35311101 8.35311101 8.35311101 8.35311101 8.35311101 8.35311101 8.35311101 8.35311101 8.35311101 8.35311101 8.35311101 8.35311101 8.35311101 8.35311101 8.35311101 8.35311101 8.35311101 8.35311101 8.35311101 8.35311101 8.35311101 8.35311101 8.35311101 8.35311101 8.35311101 8.35311101 8.35311101 8.35311101 8.35311101 8.35311101 8.35311101 8.35311101 8.35311101 8.35311101 8.35311101 8.35311101 8.35311101 8.35311101 8.35311101 8.35311101 8.35311101 8.35311101 8.35311101 8.35311101 8.35311101 8.35311101 8.35311101 8.35311101 8.34993321 8.34819513 8.34755265 8.34755265 8.34819513 8.34993321 8.35311101 8.35311101 8.35311101 8.35311101 8.35311101 8.35311101 8.35311101 8.35311101 8.35311101 8.35311101 8.35311101 8.35311101 8.35311101 8.35311101 8.35311101 8.35311101 8.35311101 8.35311101 8.35311101 8.35311101 8.35311101 8.35311101 8.35311101 8.35311101 8.35311101 8.35311101 8.35311101 8.35311101 8.35311101 8.34975486 8.34725241 8.34577077 8.34481785 8.34395831 8.34248457 8.34127057 8.34068217 8.34068217 8.34127057 8.34248457 8.34395831 8.34481785 8.34577077 8.34725241 8.34975486 8.35311101 8.35311101 8.35311101 8.35311101 8.35311101 8.35311101 8.35311101 8.35311101 8.35311101 8.35311101 8.35311101 8.35311101 8.35311101 8.35311101 8.35311101 8.35311101 8.35311101 8.35311101 8.35311101 8.35311101 8.35311101 8.35311101 8.34811668 8.34533398 8.34256662 8.34009328 8.33828499 8.33701015 8.33600377 8.33502389 8.33423531 8.33382011 8.33382011 8.33423531 8.33502389 8.33600377 8.33701015 8.33828499 8.34009328 8.34256662 8.34533398 8.34811668 8.35311101 8.35311101 8.35311101 8.35311101 8.35311101 8.35311101 8.35311101 8.35311101 8.35311101 8.35311101 8.35311101 8.35311101 8.35311101 8.35311101 8.35311101 8.35311101 8.35311101 8.35311101 8.34842603 8.34505580 8.34110399 8.33793573 8.33530744 8.33316431 8.33158074 8.33047243 8.32967249 8.32904237 8.32857995 8.32833678 8.32833678 8.32857995 8.32904237 8.32967249 8.33047243 8.33158074 8.33316431 8.33530744 8.33793573 8.34110399 8.34505580 8.34842603 8.35311101 8.35311101 8.35311101 8.35311101 8.35311101 8.35311101 8.35311101 8.35311101 8.35311101 8.35311101 8.35311101 8.35311101 8.35311101 8.35311101 8.35311101 8.34714930 8.34209304 8.33788987 8.33420588 8.33130668 8.32913668 8.32758547 8.32656556 8.32594878 8.32558572 8.32535675 8.32520894 8.32513434 8.32513434 8.32520894 8.32535675 8.32558572 8.32594878 8.32656556 8.32758547 8.32913668 8.33130668 8.33420588 8.33788987 8.34209304 8.34714930 8.35311101 8.35311101 8.35311101 8.35311101 8.35311101 8.35311101 8.35311101 8.35311101 8.35311101 8.35311101 8.35311101 8.35311101 8.35015154 8.34589798 8.34046935 8.33550069 8.33141415 8.32826028 8.32606253 8.32470316 8.32399969 8.32376770 8.32382915 8.32402627 8.32424161 8.32440772 8.32449555 8.32449555 8.32440772 8.32424161 8.32402627 8.32382915 8.32376770 8.32399969 8.32470316 8.32606253 8.32826028 8.33141415 8.33550069 8.34046935 8.34589798 8.35015154 8.35311101 8.35311101 8.35311101 8.35311101 8.35311101 8.35311101 8.35311101 8.35311101 8.35311101 8.35311101 8.34592685 8.33982961 8.33422407 8.32953890 8.32603790 8.32375356 8.32257123 8.32226423 8.32256320 8.32321465 8.32400650 8.32477747 8.32541899 8.32586916 8.32609930 8.32609930 8.32586916 8.32541899 8.32477747 8.32400650 8.32321465 8.32256320 8.32226423 8.32257123 8.32375356 8.32603790 8.32953890 8.33422407 8.33982961 8.34592685 8.35311101 8.35311101 8.35311101 8.35311101 8.35311101 8.35311101 8.35311101 8.35311101 8.35311101 8.34732844 8.34060554 8.33424267 8.32878722 8.32465809 8.32203372 8.32084265 8.32083364 8.32166189 8.32297479 8.32447175 8.32592832 8.32719543 8.32818633 8.32885880 8.32919701 8.32919701 8.32885880 8.32818633 8.32719543 8.32592832 8.32447175 8.32297479 8.32166189 8.32083364 8.32084265 8.32203372 8.32465809 8.32878722 8.33424267 8.34060554 8.34732844 8.35311101 8.35311101 8.35311101 8.35311101 8.35311101 8.35311101 8.35311101 8.34893829 8.34272371 8.33587065 8.32952356 8.32443410 8.32102978 8.31940425 8.31935952 8.32050854 8.32239688 8.32460487 8.32680691 8.32878620 8.33042027 8.33165415 8.33247305 8.33287987 8.33287987 8.33247305 8.33165415 8.33042027 8.32878620 8.32680691 8.32460487 8.32239688 8.32050854 8.31935952 8.31940425 8.32102978 8.32443410 8.32952356 8.33587065 8.34272371 8.34893829 8.35311101 8.35311101 8.35311101 8.35311101 8.35311101 8.35311101 8.34656497 8.33938332 8.33220849 8.32593282 8.32127151 8.31860117 8.31791785 8.31889901 8.32103730 8.32378946 8.32668998 8.32940649 8.33174236 8.33360811 8.33498295 8.33588011 8.33632139 8.33632139 8.33588011 8.33498295 8.33360811 8.33174236 8.32940649 8.32668998 8.32378946 8.32103730 8.31889901 8.31791785 8.31860117 8.32127151 8.32593282 8.33220849 8.33938332 8.34656497 8.35311101 8.35311101 8.35311101 8.35311101 8.35311101 8.35311101 8.34504203 8.33715861 8.32973962 8.32355171 8.31925845 8.31717778 8.31722032 8.31896438 8.32181319 8.32516254 8.32852076 8.33155885 8.33410219 8.33609058 8.33753142 8.33846030 8.33891383 8.33891383 8.33846030 8.33753142 8.33609058 8.33410219 8.33155885 8.32852076 8.32516254 8.32181319 8.31896438 8.31722032 8.31717778 8.31925845 8.32355171 8.32973962 8.33715861 8.34504203 8.35311101 8.35311101 8.35311101 8.35311101 8.35311101 8.35069371 8.34379986 8.33594624 8.32848264 8.32236956 8.31829058 8.31653737 8.31697312 8.31912177 8.32233914 8.32599047 8.32957286 8.33276188 8.33539684 8.33743456 8.33889823 8.33983568 8.34029155 8.34029155 8.33983568 8.33889823 8.33743456 8.33539684 8.33276188 8.32957286 8.32599047 8.32233914 8.31912177 8.31697312 8.31653737 8.31829058 8.32236956 8.32848264 8.33594624 8.34379986 8.35069371 8.35311101 8.35311101 8.35311101 8.35311101 8.35069371 8.34379986 8.33594624 8.32848264 8.32236956 8.31829058 8.31653737 8.31697312 8.31912177 8.32233914 8.32599047 8.32957286 8.33276188 8.33539684 8.33743456 8.33889823 8.33983568 8.34029155 8.34029155 8.33983568 8.33889823 8.33743456 8.33539684 8.33276188 8.32957286 8.32599047 8.32233914 8.31912177 8.31697312 8.31653737 8.31829058 8.32236956 8.32848264 8.33594624 8.34379986 8.35069371 8.35311101 8.35311101 8.35311101 8.35311101 8.35311101 8.34504203 8.33715861 8.32973962 8.32355171 8.31925845 8.31717778 8.31722032 8.31896438 8.32181319 8.32516254 8.32852076 8.33155885 8.33410219 8.33609058 8.33753142 8.33846030 8.33891383 8.33891383 8.33846030 8.33753142 8.33609058 8.33410219 8.33155885 8.32852076 8.32516254 8.32181319 8.31896438 8.31722032 8.31717778 8.31925845 8.32355171 8.32973962 8.33715861 8.34504203 8.35311101 8.35311101 8.35311101 8.35311101 8.35311101 8.35311101 8.34656497 8.33938332 8.33220849 8.32593282 8.32127151 8.31860117 8.31791785 8.31889901 8.32103730 8.32378946 8.32668998 8.32940649 8.33174236 8.33360811 8.33498295 8.33588011 8.33632139 8.33632139 8.33588011 8.33498295 8.33360811 8.33174236 8.32940649 8.32668998 8.32378946 8.32103730 8.31889901 8.31791785 8.31860117 8.32127151 8.32593282 8.33220849 8.33938332 8.34656497 8.35311101 8.35311101 8.35311101 8.35311101 8.35311101 8.35311101 8.34893829 8.34272371 8.33587065 8.32952356 8.32443410 8.32102978 8.31940425 8.31935952 8.32050854 8.32239688 8.32460487 8.32680691 8.32878620 8.33042027 8.33165415 8.33247305 8.33287987 8.33287987 8.33247305 8.33165415 8.33042027 8.32878620 8.32680691 8.32460487 8.32239688 8.32050854 8.31935952 8.31940425 8.32102978 8.32443410 8.32952356 8.33587065 8.34272371 8.34893829 8.35311101 8.35311101 8.35311101 8.35311101 8.35311101 8.35311101 8.35311101 8.34732844 8.34060554 8.33424267 8.32878722 8.32465809 8.32203372 8.32084265 8.32083364 8.32166189 8.32297479 8.32447175 8.32592832 8.32719543 8.32818633 8.32885880 8.32919701 8.32919701 8.32885880 8.32818633 8.32719543 8.32592832 8.32447175 8.32297479 8.32166189 8.32083364 8.32084265 8.32203372 8.32465809 8.32878722 8.33424267 8.34060554 8.34732844 8.35311101 8.35311101 8.35311101 8.35311101 8.35311101 8.35311101 8.35311101 8.35311101 8.35311101 8.34592685 8.33982961 8.33422407 8.32953890 8.32603790 8.32375356 8.32257123 8.32226423 8.32256320 8.32321465 8.32400650 8.32477747 8.32541899 8.32586916 8.32609930 8.32609930 8.32586916 8.32541899 8.32477747 8.32400650 8.32321465 8.32256320 8.32226423 8.32257123 8.32375356 8.32603790 8.32953890 8.33422407 8.33982961 8.34592685 8.35311101 8.35311101 8.35311101 8.35311101 8.35311101 8.35311101 8.35311101 8.35311101 8.35311101 8.35311101 8.35015154 8.34589798 8.34046935 8.33550069 8.33141415 8.32826028 8.32606253 8.32470316 8.32399969 8.32376770 8.32382915 8.32402627 8.32424161 8.32440772 8.32449555 8.32449555 8.32440772 8.32424161 8.32402627 8.32382915 8.32376770 8.32399969 8.32470316 8.32606253 8.32826028 8.33141415 8.33550069 8.34046935 8.34589798 8.35015154 8.35311101 8.35311101 8.35311101 8.35311101 8.35311101 8.35311101 8.35311101 8.35311101 8.35311101 8.35311101 8.35311101 8.35311101 8.34714930 8.34209304 8.33788987 8.33420588 8.33130668 8.32913668 8.32758547 8.32656556 8.32594878 8.32558572 8.32535675 8.32520894 8.32513434 8.32513434 8.32520894 8.32535675 8.32558572 8.32594878 8.32656556 8.32758547 8.32913668 8.33130668 8.33420588 8.33788987 8.34209304 8.34714930 8.35311101 8.35311101 8.35311101 8.35311101 8.35311101 8.35311101 8.35311101 8.35311101 8.35311101 8.35311101 8.35311101 8.35311101 8.35311101 8.35311101 8.35311101 8.34842603 8.34505580 8.34110399 8.33793573 8.33530744 8.33316431 8.33158074 8.33047243 8.32967249 8.32904237 8.32857995 8.32833678 8.32833678 8.32857995 8.32904237 8.32967249 8.33047243 8.33158074 8.33316431 8.33530744 8.33793573 8.34110399 8.34505580 8.34842603 8.35311101 8.35311101 8.35311101 8.35311101 8.35311101 8.35311101 8.35311101 8.35311101 8.35311101 8.35311101 8.35311101 8.35311101 8.35311101 8.35311101 8.35311101 8.35311101 8.35311101 8.35311101 8.34811668 8.34533398 8.34256662 8.34009328 8.33828499 8.33701015 8.33600377 8.33502389 8.33423531 8.33382011 8.33382011 8.33423531 8.33502389 8.33600377 8.33701015 8.33828499 8.34009328 8.34256662 8.34533398 8.34811668 8.35311101 8.35311101 8.35311101 8.35311101 8.35311101 8.35311101 8.35311101 8.35311101 8.35311101 8.35311101 8.35311101 8.35311101 8.35311101 8.35311101 8.35311101 8.35311101 8.35311101 8.35311101 8.35311101 8.35311101 8.35311101 8.35311101 8.34975486 8.34725241 8.34577077 8.34481785 8.34395831 8.34248457 8.34127057 8.34068217 8.34068217 8.34127057 8.34248457 8.34395831 8.34481785 8.34577077 8.34725241 8.34975486 8.35311101 8.35311101 8.35311101 8.35311101 8.35311101 8.35311101 8.35311101 8.35311101 8.35311101 8.35311101 8.35311101 8.35311101 8.35311101 8.35311101 8.35311101 8.35311101 8.35311101 8.35311101 8.35311101 8.35311101 8.35311101 8.35311101 8.35311101 8.35311101 8.35311101 8.35311101 8.35311101 8.35311101 8.35311101 8.34993321 8.34819513 8.34755265 8.34755265 8.34819513 8.34993321 8.35311101 8.35311101 8.35311101 8.35311101 8.35311101 8.35311101 8.35311101 8.35311101 8.35311101 8.35311101 8.35311101 8.35311101 8.35311101 8.35311101 8.35311101 8.35311101 8.35311101 8.35311101 8.35311101 8.35311101 8.35311101 8.35311101 8.35311101 8.35311101 8.35311101 8.35311101 8.35311101 8.35311101 8.35311101 8.35311101 8.35311101 8.35311101 8.35311101 8.35311101 8.35311101 8.35311101 8.35311101 8.35311101 8.35311101 8.35311101 8.35311101 8.35311101 8.35311101 8.35311101 8.35311101 8.35311101 8.35311101 8.35311101 8.35311101 8.35311101 8.35311101 8.35311101 8.35311101 8.35311101 8.35311101 8.35311101 8.35311101 8.35311101 8.35311101 8.35311101 8.35311101 8.35311101 8.35311101 8.35311101 8.35311101 8.35311101 8.35311101 8.35311101 8.35311101 8.35311101 8.35311101 8.35311101 8.35311101 8.35311101 8.35311101 8.35311101 8.35311101 8.35311101 8.35311101 8.35311101 8.35311101 8.35311101 8.35311101 8.35311101 8.35311101 8.35311101 8.35311101 8.35311101 8.35311101 8.35311101 8.35311101 8.35311101 8.35311101 8.35311101 8.35311101 8.35311101 8.35311101 8.35311101 8.35311101 8.35311101 8.35311101 8.35311101 8.35311101 8.35311101 8.35311101 8.35311101 8.35311101 8.35311101 8.35311101 8.35311101 8.35311101 8.35311101 8.35311101 8.35311101 8.35311101 8.35311101 8.35311101 8.35311101 8.35311101 8.35311101 8.35311101 8.35311101 8.35311101 8.35311101 8.35311101 8.35311101 8.35311101 8.35311101 8.35311101 8.35311101 8.35311101 8.35311101 8.35311101 8.35311101 8.35311101 8.35311101 8.35311101 8.35311101 8.35311101 8.35311101 8.35311101 8.35311101 8.35311101 8.35311101 8.35311101 8.35311101 8.35311101 8.35311101 8.35311101 8.35311101 8.35311101 8.35311101 8.35311101 8.35311101 8.35311101 8.35311101 8.35311101 8.35311101 8.35311101 8.35311101 8.35311101 8.35311101 8.35311101 8.35311101 8.35311101 8.35311101 8.35311101 8.35311101 8.35311101 8.35311101 8.35311101 8.35311101 8.35311101 8.35311101 8.35311101 8.35311101 8.35311101 8.35311101 8.35311101 8.35311101 8.35311101 8.35311101 8.35311101 8.35311101 8.35311101 8.35311101 8.35311101 8.35311101 8.35311101 8.35311101 8.35311101 8.35311101 8.35311101 8.35311101 8.35311101 8.35311101 8.35311101 8.35311101 8.35311101 8.35311101 8.35311101 8.35311101 8.35311101 8.35311101 8.35311101 8.35311101 8.35311101 8.35311101 8.35311101 8.35311101 8.35311101 8.35311101 8.35311101 8.35311101 8.35311101 8.35311101 8.35311101 8.35311101 8.35311101 8.35311101 8.35311101 8.35311101 8.35311101 8.35311101 8.35311101 8.35311101 8.35311101 8.35311101 8.35311101 8.35311101 8.35311101 8.35311101 8.35311101 8.35311101 8.35311101 8.35311101 8.35311101 8.35311101 8.35311101 8.35311101 8.35311101 8.35311101 8.35311101 8.35311101 8.35311101 8.35311101 8.35311101 8.35311101 8.35311101 8.35311101 8.35311101 8.35311101 8.35311101 8.35311101 8.35311101 8.35311101 8.35311101 8.35311101 8.35311101 8.35311101 8.35311101 8.35311101 8.35311101 8.35311101 8.35311101 8.35311101 8.35311101 8.35311101 8.35311101 8.35311101 8.35311101 8.35311101 8.35311101 8.35311101 8.35311101 8.35311101 8.35311101 8.35311101 8.35311101 8.35311101 8.35311101 8.35311101 8.35311101 8.35311101 8.35311101 8.35311101 8.35311101 8.35311101 8.35311101 8.35311101 8.35311101 8.35311101 8.35311101 8.35311101 8.35311101 8.35311101 8.35311101 8.35311101 8.35311101 8.35311101 8.35311101 8.35311101 8.35311101 8.35311101 8.35311101 8.35311101 8.35311101 8.35311101 8.35311101 8.35311101 8.35311101 8.35311101 8.35311101 8.35311101 8.35311101 8.35311101 8.35311101 8.35311101 8.35311101 8.35311101 8.35311101 8.35311101 8.35311101 8.35311101 8.35311101 8.35311101 8.35311101 8.35311101 8.35311101 8.35311101 8.35311101 8.35311101 8.35311101 8.35311101 8.35311101 8.35311101 8.35311101 