# vtk DataFile Version 3.0
VTK - Matlab export
ASCII
DATASET STRUCTURED_POINTS
DIMENSIONS 40 40 1
SPACING 1 1 1
ORIGIN 0 0 0
POINT_DATA 1600
SCALARS Proofstrength float 1
LOOKUP_TABLE default
140.71398941 140.71398941 140.71398941 140.71398941 140.71398941 140.71398941 140.71398941 140.71398941 140.71398941 140.71398941 140.71398941 140.71398941 140.71398941 140.71398941 140.71398941 140.71398941 140.71398941 140.71398941 140.71398941 140.71398941 140.71398941 140.71398941 140.71398941 140.71398941 140.71398941 140.71398941 140.71398941 140.71398941 140.71398941 140.71398941 140.71398941 140.71398941 140.71398941 140.71398941 140.71398941 140.71398941 140.71398941 140.71398941 140.71398941 140.71398941 140.71398941 140.71398941 140.71398941 140.71398941 140.71398941 140.71398941 140.71398941 140.71398941 140.71398941 140.71398941 140.71398941 140.71398941 140.71398941 140.71398941 140.71398941 140.71398941 140.71398941 140.71398941 140.71398941 140.71398941 140.71398941 140.71398941 140.71398941 140.71398941 140.71398941 140.71398941 140.71398941 140.71398941 140.71398941 140.71398941 140.71398941 140.71398941 140.71398941 140.71398941 140.71398941 140.71398941 140.71398941 140.71398941 140.71398941 140.71398941 140.71398941 140.71398941 140.71398941 140.71398941 140.71398941 140.71398941 140.71398941 140.71398941 140.71398941 140.71398941 140.71398941 140.71398941 140.71398941 140.71398941 140.71398941 140.71398941 140.71398941 140.71398941 140.71398941 140.71398941 140.71398941 140.71398941 140.71398941 140.71398941 140.71398941 140.71398941 140.71398941 140.71398941 140.71398941 140.71398941 140.71398941 140.71398941 140.71398941 140.71398941 140.71398941 140.71398941 140.71398941 140.71398941 140.71398941 140.71398941 140.71398941 140.71398941 140.71398941 140.71398941 140.71398941 140.71398941 140.71398941 140.71398941 140.71398941 140.71398941 140.71398941 140.71398941 140.71398941 140.71398941 140.71398941 140.71398941 140.71398941 140.71398941 140.71398941 140.71398941 140.71398941 140.71398941 140.71398941 140.71398941 140.71398941 140.71398941 140.71398941 140.71398941 140.71398941 140.71398941 140.71398941 140.71398941 140.71398941 140.71398941 140.71398941 140.71398941 140.71398941 140.71398941 140.71398941 140.71398941 140.71398941 140.71398941 140.71398941 140.71398941 140.71398941 140.71398941 140.71398941 140.71398941 140.71398941 140.71398941 140.71398941 140.71398941 140.71398941 140.71398941 140.71398941 140.71398941 140.71398941 140.71398941 140.71398941 140.71398941 140.71398941 140.71398941 140.71398941 140.71398941 140.71398941 140.71398941 140.71398941 140.71398941 140.71398941 140.71398941 140.71398941 140.71398941 140.71398941 140.71398941 140.71398941 140.71398941 140.71398941 140.71398941 140.71398941 140.71398941 140.71398941 140.71398941 140.71398941 140.71398941 140.71398941 140.71398941 140.71398941 140.71398941 140.71398941 140.71398941 140.71398941 140.71398941 140.71398941 140.71398941 140.71398941 140.71398941 140.71398941 140.71398941 140.71398941 140.71398941 140.71398941 140.71398941 140.71398941 140.71398941 140.71398941 140.71398941 140.71398941 140.71398941 140.71398941 140.71398941 140.71398941 140.71398941 140.71398941 140.71398941 140.71398941 140.71398941 140.71398941 140.71398941 140.71398941 140.71398941 140.71398941 140.71398941 140.71398941 140.71398941 140.71398941 140.71398941 140.71398941 140.71398941 140.71398941 140.71398941 140.71398941 140.71398941 140.71398941 140.71398941 140.71398941 140.71398941 140.71398941 140.71398941 140.71398941 140.71398941 140.71398941 140.71398941 140.71398941 140.71398941 140.71398941 140.71398941 140.71398941 140.71398941 140.71398941 140.71398941 140.71398941 140.71398941 140.71398941 140.71398941 140.71398941 140.71398941 140.71398941 140.71398941 140.71398941 140.71398941 140.71398941 140.71398941 140.71398941 140.71398941 140.71398941 140.71398941 140.71398941 140.71398941 140.71398941 140.71398941 140.71398941 140.71398941 140.71398941 140.71398941 140.71398941 140.71398941 140.71398941 140.71398941 140.71398941 140.71398941 140.71398941 140.71398941 140.71398941 140.71398941 140.71398941 140.71398941 140.71398941 140.71398941 140.71398941 140.71398941 140.71398941 140.71398941 140.71398941 140.71398941 140.71398941 140.71398941 140.71398941 140.71398941 140.71398941 140.71398941 140.71398941 140.71398941 140.71398941 140.71398941 140.71398941 140.71398941 140.71398941 140.71398941 140.71398941 140.71398941 140.71398941 140.71398941 140.71398941 140.71398941 140.71398941 140.71398941 140.71398941 140.74878318 140.77210732 140.78212315 140.78212315 140.77210732 140.74878318 140.71398941 140.71398941 140.71398941 140.71398941 140.71398941 140.71398941 140.71398941 140.71398941 140.71398941 140.71398941 140.71398941 140.71398941 140.71398941 140.71398941 140.71398941 140.71398941 140.71398941 140.71398941 140.71398941 140.71398941 140.71398941 140.71398941 140.71398941 140.71398941 140.71398941 140.71398941 140.71398941 140.71398941 140.71398941 140.74984211 140.77631972 140.78820999 140.79169966 140.79507202 140.80951594 140.82474671 140.83289094 140.83289094 140.82474671 140.80951594 140.79507202 140.79169966 140.78820999 140.77631972 140.74984211 140.71398941 140.71398941 140.71398941 140.71398941 140.71398941 140.71398941 140.71398941 140.71398941 140.71398941 140.71398941 140.71398941 140.71398941 140.71398941 140.71398941 140.71398941 140.71398941 140.71398941 140.71398941 140.71398941 140.71398941 140.71398941 140.71398941 140.76595849 140.79008860 140.81056861 140.82569995 140.83055118 140.82825045 140.82538956 140.82726939 140.83147453 140.83407122 140.83407122 140.83147453 140.82726939 140.82538956 140.82825045 140.83055118 140.82569995 140.81056861 140.79008860 140.76595849 140.71398941 140.71398941 140.71398941 140.71398941 140.71398941 140.71398941 140.71398941 140.71398941 140.71398941 140.71398941 140.71398941 140.71398941 140.71398941 140.71398941 140.71398941 140.71398941 140.71398941 140.71398941 140.76224429 140.79055606 140.81878697 140.83060224 140.83254751 140.82951346 140.82222104 140.81289430 140.80485559 140.80012427 140.79793265 140.79693630 140.79693630 140.79793265 140.80012427 140.80485559 140.81289430 140.82222104 140.82951346 140.83254751 140.83060224 140.81878697 140.79055606 140.76224429 140.71398941 140.71398941 140.71398941 140.71398941 140.71398941 140.71398941 140.71398941 140.71398941 140.71398941 140.71398941 140.71398941 140.71398941 140.71398941 140.71398941 140.71398941 140.77132899 140.81136999 140.82955500 140.83332079 140.82487714 140.81101796 140.79701162 140.78447828 140.77404076 140.76621609 140.76098657 140.75774888 140.75608819 140.75608819 140.75774888 140.76098657 140.76621609 140.77404076 140.78447828 140.79701162 140.81101796 140.82487714 140.83332079 140.82955500 140.81136999 140.77132899 140.71398941 140.71398941 140.71398941 140.71398941 140.71398941 140.71398941 140.71398941 140.71398941 140.71398941 140.71398941 140.71398941 140.71398941 140.74555262 140.78288355 140.81866034 140.83357131 140.82806561 140.81139860 140.79118508 140.77283899 140.75867491 140.74849958 140.74142663 140.73665582 140.73350530 140.73148347 140.73043441 140.73043441 140.73148347 140.73350530 140.73665582 140.74142663 140.74849958 140.75867491 140.77283899 140.79118508 140.81139860 140.82806561 140.83357131 140.81866034 140.78288355 140.74555262 140.71398941 140.71398941 140.71398941 140.71398941 140.71398941 140.71398941 140.71398941 140.71398941 140.71398941 140.71398941 140.78397324 140.82310335 140.83466373 140.82333965 140.80019110 140.77588460 140.75599074 140.74191574 140.73283882 140.72723734 140.72382308 140.72172453 140.72038949 140.71953394 140.71909091 140.71909091 140.71953394 140.72038949 140.72172453 140.72382308 140.72723734 140.73283882 140.74191574 140.75599074 140.77588460 140.80019110 140.82333965 140.83466373 140.82310335 140.78397324 140.71398941 140.71398941 140.71398941 140.71398941 140.71398941 140.71398941 140.71398941 140.71398941 140.71398941 140.77436522 140.82291145 140.83756649 140.82312395 140.79508263 140.76721779 140.74616501 140.73261686 140.72473697 140.72041437 140.71808925 140.71682880 140.71611939 140.71568746 140.71541374 140.71527286 140.71527286 140.71541374 140.71568746 140.71611939 140.71682880 140.71808925 140.72041437 140.72473697 140.73261686 140.74616501 140.76721779 140.79508263 140.82312395 140.83756649 140.82291145 140.77436522 140.71398941 140.71398941 140.71398941 140.71398941 140.71398941 140.71398941 140.71398941 140.76402074 140.81818239 140.84277907 140.83061364 140.79853178 140.76593934 140.74231724 140.72828990 140.72096949 140.71744134 140.71580021 140.71503289 140.71466256 140.71447157 140.71436044 140.71429099 140.71425553 140.71425553 140.71429099 140.71436044 140.71447157 140.71466256 140.71503289 140.71580021 140.71744134 140.72096949 140.72828990 140.74231724 140.76593934 140.79853178 140.83061364 140.84277907 140.81818239 140.76402074 140.71398941 140.71398941 140.71398941 140.71398941 140.71398941 140.71398941 140.78925725 140.83968207 140.84404662 140.81331293 140.77438675 140.74486042 140.72788373 140.71975284 140.71630776 140.71494906 140.71442327 140.71421300 140.71412339 140.71408116 140.71405769 140.71404323 140.71403592 140.71403592 140.71404323 140.71405769 140.71408116 140.71412339 140.71421300 140.71442327 140.71494906 140.71630776 140.71975284 140.72788373 140.74486042 140.77438675 140.81331293 140.84404662 140.83968207 140.78925725 140.71398941 140.71398941 140.71398941 140.71398941 140.71398941 140.71398941 140.80179046 140.84656864 140.83685118 140.79673770 140.75756258 140.73287573 140.72103347 140.71635769 140.71475076 140.71424287 140.71408489 140.71403265 140.71401340 140.71400518 140.71400080 140.71399813 140.71399679 140.71399679 140.71399813 140.71400080 140.71400518 140.71401340 140.71403265 140.71408489 140.71424287 140.71475076 140.71635769 140.72103347 140.73287573 140.75756258 140.79673770 140.83685118 140.84656864 140.80179046 140.71398941 140.71398941 140.71398941 140.71398941 140.71398941 140.74307950 140.81347848 140.84907820 140.83118671 140.78742881 140.74945287 140.72780365 140.71849640 140.71527039 140.71432484 140.71407829 140.71401663 140.71400013 140.71399497 140.71399299 140.71399195 140.71399129 140.71399095 140.71399095 140.71399129 140.71399195 140.71399299 140.71399497 140.71400013 140.71401663 140.71407829 140.71432484 140.71527039 140.71849640 140.72780365 140.74945287 140.78742881 140.83118671 140.84907820 140.81347848 140.74307950 140.71398941 140.71398941 140.71398941 140.71398941 140.74307950 140.81347848 140.84907820 140.83118671 140.78742881 140.74945287 140.72780365 140.71849640 140.71527039 140.71432484 140.71407829 140.71401663 140.71400013 140.71399497 140.71399299 140.71399195 140.71399129 140.71399095 140.71399095 140.71399129 140.71399195 140.71399299 140.71399497 140.71400013 140.71401663 140.71407829 140.71432484 140.71527039 140.71849640 140.72780365 140.74945287 140.78742881 140.83118671 140.84907820 140.81347848 140.74307950 140.71398941 140.71398941 140.71398941 140.71398941 140.71398941 140.80179046 140.84656864 140.83685118 140.79673770 140.75756258 140.73287573 140.72103347 140.71635769 140.71475076 140.71424287 140.71408489 140.71403265 140.71401340 140.71400518 140.71400080 140.71399813 140.71399679 140.71399679 140.71399813 140.71400080 140.71400518 140.71401340 140.71403265 140.71408489 140.71424287 140.71475076 140.71635769 140.72103347 140.73287573 140.75756258 140.79673770 140.83685118 140.84656864 140.80179046 140.71398941 140.71398941 140.71398941 140.71398941 140.71398941 140.71398941 140.78925725 140.83968207 140.84404662 140.81331293 140.77438675 140.74486042 140.72788373 140.71975284 140.71630776 140.71494906 140.71442327 140.71421300 140.71412339 140.71408116 140.71405769 140.71404323 140.71403592 140.71403592 140.71404323 140.71405769 140.71408116 140.71412339 140.71421300 140.71442327 140.71494906 140.71630776 140.71975284 140.72788373 140.74486042 140.77438675 140.81331293 140.84404662 140.83968207 140.78925725 140.71398941 140.71398941 140.71398941 140.71398941 140.71398941 140.71398941 140.76402074 140.81818239 140.84277907 140.83061364 140.79853178 140.76593934 140.74231724 140.72828990 140.72096949 140.71744134 140.71580021 140.71503289 140.71466256 140.71447157 140.71436044 140.71429099 140.71425553 140.71425553 140.71429099 140.71436044 140.71447157 140.71466256 140.71503289 140.71580021 140.71744134 140.72096949 140.72828990 140.74231724 140.76593934 140.79853178 140.83061364 140.84277907 140.81818239 140.76402074 140.71398941 140.71398941 140.71398941 140.71398941 140.71398941 140.71398941 140.71398941 140.77436522 140.82291145 140.83756649 140.82312395 140.79508263 140.76721779 140.74616501 140.73261686 140.72473697 140.72041437 140.71808925 140.71682880 140.71611939 140.71568746 140.71541374 140.71527286 140.71527286 140.71541374 140.71568746 140.71611939 140.71682880 140.71808925 140.72041437 140.72473697 140.73261686 140.74616501 140.76721779 140.79508263 140.82312395 140.83756649 140.82291145 140.77436522 140.71398941 140.71398941 140.71398941 140.71398941 140.71398941 140.71398941 140.71398941 140.71398941 140.71398941 140.78397324 140.82310335 140.83466373 140.82333965 140.80019110 140.77588460 140.75599074 140.74191574 140.73283882 140.72723734 140.72382308 140.72172453 140.72038949 140.71953394 140.71909091 140.71909091 140.71953394 140.72038949 140.72172453 140.72382308 140.72723734 140.73283882 140.74191574 140.75599074 140.77588460 140.80019110 140.82333965 140.83466373 140.82310335 140.78397324 140.71398941 140.71398941 140.71398941 140.71398941 140.71398941 140.71398941 140.71398941 140.71398941 140.71398941 140.71398941 140.74555262 140.78288355 140.81866034 140.83357131 140.82806561 140.81139860 140.79118508 140.77283899 140.75867491 140.74849958 140.74142663 140.73665582 140.73350530 140.73148347 140.73043441 140.73043441 140.73148347 140.73350530 140.73665582 140.74142663 140.74849958 140.75867491 140.77283899 140.79118508 140.81139860 140.82806561 140.83357131 140.81866034 140.78288355 140.74555262 140.71398941 140.71398941 140.71398941 140.71398941 140.71398941 140.71398941 140.71398941 140.71398941 140.71398941 140.71398941 140.71398941 140.71398941 140.77132899 140.81136999 140.82955500 140.83332079 140.82487714 140.81101796 140.79701162 140.78447828 140.77404076 140.76621609 140.76098657 140.75774888 140.75608819 140.75608819 140.75774888 140.76098657 140.76621609 140.77404076 140.78447828 140.79701162 140.81101796 140.82487714 140.83332079 140.82955500 140.81136999 140.77132899 140.71398941 140.71398941 140.71398941 140.71398941 140.71398941 140.71398941 140.71398941 140.71398941 140.71398941 140.71398941 140.71398941 140.71398941 140.71398941 140.71398941 140.71398941 140.76224429 140.79055606 140.81878697 140.83060224 140.83254751 140.82951346 140.82222104 140.81289430 140.80485559 140.80012427 140.79793265 140.79693630 140.79693630 140.79793265 140.80012427 140.80485559 140.81289430 140.82222104 140.82951346 140.83254751 140.83060224 140.81878697 140.79055606 140.76224429 140.71398941 140.71398941 140.71398941 140.71398941 140.71398941 140.71398941 140.71398941 140.71398941 140.71398941 140.71398941 140.71398941 140.71398941 140.71398941 140.71398941 140.71398941 140.71398941 140.71398941 140.71398941 140.76595849 140.79008860 140.81056861 140.82569995 140.83055118 140.82825045 140.82538956 140.82726939 140.83147453 140.83407122 140.83407122 140.83147453 140.82726939 140.82538956 140.82825045 140.83055118 140.82569995 140.81056861 140.79008860 140.76595849 140.71398941 140.71398941 140.71398941 140.71398941 140.71398941 140.71398941 140.71398941 140.71398941 140.71398941 140.71398941 140.71398941 140.71398941 140.71398941 140.71398941 140.71398941 140.71398941 140.71398941 140.71398941 140.71398941 140.71398941 140.71398941 140.71398941 140.74984211 140.77631972 140.78820999 140.79169966 140.79507202 140.80951594 140.82474671 140.83289094 140.83289094 140.82474671 140.80951594 140.79507202 140.79169966 140.78820999 140.77631972 140.74984211 140.71398941 140.71398941 140.71398941 140.71398941 140.71398941 140.71398941 140.71398941 140.71398941 140.71398941 140.71398941 140.71398941 140.71398941 140.71398941 140.71398941 140.71398941 140.71398941 140.71398941 140.71398941 140.71398941 140.71398941 140.71398941 140.71398941 140.71398941 140.71398941 140.71398941 140.71398941 140.71398941 140.71398941 140.71398941 140.74878318 140.77210732 140.78212315 140.78212315 140.77210732 140.74878318 140.71398941 140.71398941 140.71398941 140.71398941 140.71398941 140.71398941 140.71398941 140.71398941 140.71398941 140.71398941 140.71398941 140.71398941 140.71398941 140.71398941 140.71398941 140.71398941 140.71398941 140.71398941 140.71398941 140.71398941 140.71398941 140.71398941 140.71398941 140.71398941 140.71398941 140.71398941 140.71398941 140.71398941 140.71398941 140.71398941 140.71398941 140.71398941 140.71398941 140.71398941 140.71398941 140.71398941 140.71398941 140.71398941 140.71398941 140.71398941 140.71398941 140.71398941 140.71398941 140.71398941 140.71398941 140.71398941 140.71398941 140.71398941 140.71398941 140.71398941 140.71398941 140.71398941 140.71398941 140.71398941 140.71398941 140.71398941 140.71398941 140.71398941 140.71398941 140.71398941 140.71398941 140.71398941 140.71398941 140.71398941 140.71398941 140.71398941 140.71398941 140.71398941 140.71398941 140.71398941 140.71398941 140.71398941 140.71398941 140.71398941 140.71398941 140.71398941 140.71398941 140.71398941 140.71398941 140.71398941 140.71398941 140.71398941 140.71398941 140.71398941 140.71398941 140.71398941 140.71398941 140.71398941 140.71398941 140.71398941 140.71398941 140.71398941 140.71398941 140.71398941 140.71398941 140.71398941 140.71398941 140.71398941 140.71398941 140.71398941 140.71398941 140.71398941 140.71398941 140.71398941 140.71398941 140.71398941 140.71398941 140.71398941 140.71398941 140.71398941 140.71398941 140.71398941 140.71398941 140.71398941 140.71398941 140.71398941 140.71398941 140.71398941 140.71398941 140.71398941 140.71398941 140.71398941 140.71398941 140.71398941 140.71398941 140.71398941 140.71398941 140.71398941 140.71398941 140.71398941 140.71398941 140.71398941 140.71398941 140.71398941 140.71398941 140.71398941 140.71398941 140.71398941 140.71398941 140.71398941 140.71398941 140.71398941 140.71398941 140.71398941 140.71398941 140.71398941 140.71398941 140.71398941 140.71398941 140.71398941 140.71398941 140.71398941 140.71398941 140.71398941 140.71398941 140.71398941 140.71398941 140.71398941 140.71398941 140.71398941 140.71398941 140.71398941 140.71398941 140.71398941 140.71398941 140.71398941 140.71398941 140.71398941 140.71398941 140.71398941 140.71398941 140.71398941 140.71398941 140.71398941 140.71398941 140.71398941 140.71398941 140.71398941 140.71398941 140.71398941 140.71398941 140.71398941 140.71398941 140.71398941 140.71398941 140.71398941 140.71398941 140.71398941 140.71398941 140.71398941 140.71398941 140.71398941 140.71398941 140.71398941 140.71398941 140.71398941 140.71398941 140.71398941 140.71398941 140.71398941 140.71398941 140.71398941 140.71398941 140.71398941 140.71398941 140.71398941 140.71398941 140.71398941 140.71398941 140.71398941 140.71398941 140.71398941 140.71398941 140.71398941 140.71398941 140.71398941 140.71398941 140.71398941 140.71398941 140.71398941 140.71398941 140.71398941 140.71398941 140.71398941 140.71398941 140.71398941 140.71398941 140.71398941 140.71398941 140.71398941 140.71398941 140.71398941 140.71398941 140.71398941 140.71398941 140.71398941 140.71398941 140.71398941 140.71398941 140.71398941 140.71398941 140.71398941 140.71398941 140.71398941 140.71398941 140.71398941 140.71398941 140.71398941 140.71398941 140.71398941 140.71398941 140.71398941 140.71398941 140.71398941 140.71398941 140.71398941 140.71398941 140.71398941 140.71398941 140.71398941 140.71398941 140.71398941 140.71398941 140.71398941 140.71398941 140.71398941 140.71398941 140.71398941 140.71398941 140.71398941 140.71398941 140.71398941 140.71398941 140.71398941 140.71398941 140.71398941 140.71398941 140.71398941 140.71398941 140.71398941 140.71398941 140.71398941 140.71398941 140.71398941 140.71398941 140.71398941 140.71398941 140.71398941 140.71398941 140.71398941 140.71398941 140.71398941 140.71398941 140.71398941 140.71398941 140.71398941 140.71398941 140.71398941 140.71398941 140.71398941 140.71398941 140.71398941 140.71398941 140.71398941 140.71398941 140.71398941 140.71398941 140.71398941 140.71398941 140.71398941 140.71398941 140.71398941 140.71398941 140.71398941 140.71398941 140.71398941 140.71398941 140.71398941 140.71398941 140.71398941 140.71398941 140.71398941 140.71398941 140.71398941 140.71398941 140.71398941 140.71398941 140.71398941 140.71398941 140.71398941 140.71398941 140.71398941 140.71398941 140.71398941 140.71398941 140.71398941 140.71398941 