# vtk DataFile Version 3.0
VTK - Matlab export
ASCII
DATASET STRUCTURED_POINTS
DIMENSIONS 40 40 1
SPACING 1 1 1
ORIGIN 0 0 0
POINT_DATA 1600
SCALARS Proofstrength float 1
LOOKUP_TABLE default
140.71398941 140.71398941 140.71398941 140.71398941 140.71398941 140.71398941 140.71398941 140.71398941 140.71398941 140.71398941 140.71398941 140.71398941 140.71398941 140.71398941 140.71398941 140.71398941 140.71398941 140.71398941 140.71398941 140.71398941 140.71398941 140.71398941 140.71398941 140.71398941 140.71398941 140.71398941 140.71398941 140.71398941 140.71398941 140.71398941 140.71398941 140.71398941 140.71398941 140.71398941 140.71398941 140.71398941 140.71398941 140.71398941 140.71398941 140.71398941 140.71398941 140.71398941 140.71398941 140.71398941 140.71398941 140.71398941 140.71398941 140.71398941 140.71398941 140.71398941 140.71398941 140.71398941 140.71398941 140.71398941 140.71398941 140.71398941 140.71398941 140.71398941 140.71398941 140.71398941 140.71398941 140.71398941 140.71398941 140.71398941 140.71398941 140.71398941 140.71398941 140.71398941 140.71398941 140.71398941 140.71398941 140.71398941 140.71398941 140.71398941 140.71398941 140.71398941 140.71398941 140.71398941 140.71398941 140.71398941 140.71398941 140.71398941 140.71398941 140.71398941 140.71398941 140.71398941 140.71398941 140.71398941 140.71398941 140.71398941 140.71398941 140.71398941 140.71398941 140.71398941 140.71398941 140.71398941 140.71398941 140.71398941 140.71398941 140.71398941 140.71398941 140.71398941 140.71398941 140.71398941 140.71398941 140.71398941 140.71398941 140.71398941 140.71398941 140.71398941 140.71398941 140.71398941 140.71398941 140.71398941 140.71398941 140.71398941 140.71398941 140.71398941 140.71398941 140.71398941 140.71398941 140.71398941 140.71398941 140.71398941 140.71398941 140.71398941 140.71398941 140.71398941 140.71398941 140.71398941 140.71398941 140.71398941 140.71398941 140.71398941 140.71398941 140.71398941 140.71398941 140.71398941 140.71398941 140.71398941 140.71398941 140.71398941 140.71398941 140.71398941 140.71398941 140.71398941 140.71398941 140.71398941 140.71398941 140.71398941 140.71398941 140.71398941 140.71398941 140.71398941 140.71398941 140.71398941 140.71398941 140.71398941 140.71398941 140.71398941 140.71398941 140.71398941 140.71398941 140.71398941 140.71398941 140.71398941 140.71398941 140.71398941 140.71398941 140.71398941 140.71398941 140.71398941 140.71398941 140.71398941 140.71398941 140.71398941 140.71398941 140.71398941 140.71398941 140.71398941 140.71398941 140.71398941 140.71398941 140.71398941 140.71398941 140.71398941 140.71398941 140.71398941 140.71398941 140.71398941 140.71398941 140.71398941 140.71398941 140.71398941 140.71398941 140.71398941 140.71398941 140.71398941 140.71398941 140.71398941 140.71398941 140.71398941 140.71398941 140.71398941 140.71398941 140.71398941 140.71398941 140.71398941 140.71398941 140.71398941 140.71398941 140.71398941 140.71398941 140.71398941 140.71398941 140.71398941 140.71398941 140.71398941 140.71398941 140.71398941 140.71398941 140.71398941 140.71398941 140.71398941 140.71398941 140.71398941 140.71398941 140.71398941 140.71398941 140.71398941 140.71398941 140.71398941 140.71398941 140.71398941 140.71398941 140.71398941 140.71398941 140.71398941 140.71398941 140.71398941 140.71398941 140.71398941 140.71398941 140.71398941 140.71398941 140.71398941 140.71398941 140.71398941 140.71398941 140.71398941 140.71398941 140.71398941 140.71398941 140.71398941 140.71398941 140.71398941 140.71398941 140.71398941 140.71398941 140.71398941 140.71398941 140.71398941 140.71398941 140.71398941 140.71398941 140.71398941 140.71398941 140.71398941 140.71398941 140.71398941 140.71398941 140.71398941 140.71398941 140.71398941 140.71398941 140.71398941 140.71398941 140.71398941 140.71398941 140.71398941 140.71398941 140.71398941 140.71398941 140.71398941 140.71398941 140.71398941 140.71398941 140.71398941 140.71398941 140.71398941 140.71398941 140.71398941 140.71398941 140.71398941 140.71398941 140.71398941 140.71398941 140.71398941 140.71398941 140.71398941 140.71398941 140.71398941 140.71398941 140.71398941 140.71398941 140.71398941 140.71398941 140.71398941 140.71398941 140.71398941 140.71398941 140.71398941 140.71398941 140.71398941 140.71398941 140.71398941 140.71398941 140.71398941 140.71398941 140.71398941 140.71398941 140.71398941 140.71398941 140.71398941 140.71398941 140.71398941 140.71398941 140.71398941 140.71398941 140.71398941 140.71398941 140.71398941 140.71398941 140.71398941 140.71398941 140.71398941 140.71398941 140.72434545 140.73033194 140.73264786 140.73264786 140.73033194 140.72434545 140.71398941 140.71398941 140.71398941 140.71398941 140.71398941 140.71398941 140.71398941 140.71398941 140.71398941 140.71398941 140.71398941 140.71398941 140.71398941 140.71398941 140.71398941 140.71398941 140.71398941 140.71398941 140.71398941 140.71398941 140.71398941 140.71398941 140.71398941 140.71398941 140.71398941 140.71398941 140.71398941 140.71398941 140.71398941 140.72490134 140.73300035 140.73747931 140.74002749 140.74233467 140.74699860 140.75111525 140.75319079 140.75319079 140.75111525 140.74699860 140.74233467 140.74002749 140.73747931 140.73300035 140.72490134 140.71398941 140.71398941 140.71398941 140.71398941 140.71398941 140.71398941 140.71398941 140.71398941 140.71398941 140.71398941 140.71398941 140.71398941 140.71398941 140.71398941 140.71398941 140.71398941 140.71398941 140.71398941 140.71398941 140.71398941 140.71398941 140.71398941 140.73008048 140.73870809 140.74696494 140.75395848 140.75842088 140.76097083 140.76282782 140.76508230 140.76720159 140.76839835 140.76839835 140.76720159 140.76508230 140.76282782 140.76097083 140.75842088 140.75395848 140.74696494 140.73870809 140.73008048 140.71398941 140.71398941 140.71398941 140.71398941 140.71398941 140.71398941 140.71398941 140.71398941 140.71398941 140.71398941 140.71398941 140.71398941 140.71398941 140.71398941 140.71398941 140.71398941 140.71398941 140.71398941 140.72894572 140.73922291 140.75086423 140.75917753 140.76512277 140.76915071 140.77122571 140.77189578 140.77202209 140.77228305 140.77270815 140.77301038 140.77301038 140.77270815 140.77228305 140.77202209 140.77189578 140.77122571 140.76915071 140.76512277 140.75917753 140.75086423 140.73922291 140.72894572 140.71398941 140.71398941 140.71398941 140.71398941 140.71398941 140.71398941 140.71398941 140.71398941 140.71398941 140.71398941 140.71398941 140.71398941 140.71398941 140.71398941 140.71398941 140.73270513 140.74776678 140.75883130 140.76709478 140.77194409 140.77403949 140.77422247 140.77310741 140.77133387 140.76953910 140.76817076 140.76734763 140.76698084 140.76698084 140.76734763 140.76817076 140.76953910 140.77133387 140.77310741 140.77422247 140.77403949 140.77194409 140.76709478 140.75883130 140.74776678 140.73270513 140.71398941 140.71398941 140.71398941 140.71398941 140.71398941 140.71398941 140.71398941 140.71398941 140.71398941 140.71398941 140.71398941 140.71398941 140.72366202 140.73677380 140.75223457 140.76431014 140.77176763 140.77512257 140.77511297 140.77286267 140.76945372 140.76566992 140.76206203 140.75901342 140.75673754 140.75527684 140.75457442 140.75457442 140.75527684 140.75673754 140.75901342 140.76206203 140.76566992 140.76945372 140.77286267 140.77511297 140.77512257 140.77176763 140.76431014 140.75223457 140.73677380 140.72366202 140.71398941 140.71398941 140.71398941 140.71398941 140.71398941 140.71398941 140.71398941 140.71398941 140.71398941 140.71398941 140.73712820 140.75459040 140.76755282 140.77487826 140.77680053 140.77464353 140.76998652 140.76426883 140.75853484 140.75338337 140.74909108 140.74575027 140.74335018 140.74182221 140.74108445 140.74108445 140.74182221 140.74335018 140.74575027 140.74909108 140.75338337 140.75853484 140.76426883 140.76998652 140.77464353 140.77680053 140.77487826 140.76755282 140.75459040 140.73712820 140.71398941 140.71398941 140.71398941 140.71398941 140.71398941 140.71398941 140.71398941 140.71398941 140.71398941 140.73330513 140.75354791 140.76885509 140.77725251 140.77872535 140.77487826 140.76798056 140.76005973 140.75249683 140.74600393 140.74079771 140.73682184 140.73391698 140.73191206 140.73066193 140.73006339 140.73006339 140.73066193 140.73191206 140.73391698 140.73682184 140.74079771 140.74600393 140.75249683 140.76005973 140.76798056 140.77487826 140.77872535 140.77725251 140.76885509 140.75354791 140.73330513 140.71398941 140.71398941 140.71398941 140.71398941 140.71398941 140.71398941 140.71398941 140.72860131 140.74862808 140.76696412 140.77847165 140.78148191 140.77725697 140.76865163 140.75858579 140.74910592 140.74121408 140.73513726 140.73068716 140.72753511 140.72536431 140.72392756 140.72305459 140.72264211 140.72264211 140.72305459 140.72392756 140.72536431 140.72753511 140.73068716 140.73513726 140.74121408 140.74910592 140.75858579 140.76865163 140.77725697 140.78148191 140.77847165 140.76696412 140.74862808 140.72860131 140.71398941 140.71398941 140.71398941 140.71398941 140.71398941 140.71398941 140.73682950 140.75911806 140.77598562 140.78366086 140.78177607 140.77300600 140.76119337 140.74953406 140.73979349 140.73246904 140.72732354 140.72385627 140.72157387 140.72009443 140.71915886 140.71860728 140.71835091 140.71835091 140.71860728 140.71915886 140.72009443 140.72157387 140.72385627 140.72732354 140.73246904 140.73979349 140.74953406 140.76119337 140.77300600 140.78177607 140.78366086 140.77598562 140.75911806 140.73682950 140.71398941 140.71398941 140.71398941 140.71398941 140.71398941 140.71398941 140.74193204 140.76558572 140.78113308 140.78576704 140.78031135 140.76856195 140.75498300 140.74278874 140.73338830 140.72684408 140.72258513 140.71992274 140.71828964 140.71729453 140.71669527 140.71635372 140.71619799 140.71619799 140.71635372 140.71669527 140.71729453 140.71828964 140.71992274 140.72258513 140.72684408 140.73338830 140.74278874 140.75498300 140.76856195 140.78031135 140.78576704 140.78113308 140.76558572 140.74193204 140.71398941 140.71398941 140.71398941 140.71398941 140.71398941 140.72260641 140.74619942 140.76900209 140.78344360 140.78634749 140.77903066 140.76585013 140.75154327 140.73926844 140.73020239 140.72416467 140.72041683 140.71818784 140.71688756 140.71613153 140.71569375 140.71545121 140.71534244 140.71534244 140.71545121 140.71569375 140.71613153 140.71688756 140.71818784 140.72041683 140.72416467 140.73020239 140.73926844 140.75154327 140.76585013 140.77903066 140.78634749 140.78344360 140.76900209 140.74619942 140.72260641 140.71398941 140.71398941 140.71398941 140.71398941 140.72260641 140.74619942 140.76900209 140.78344360 140.78634749 140.77903066 140.76585013 140.75154327 140.73926844 140.73020239 140.72416467 140.72041683 140.71818784 140.71688756 140.71613153 140.71569375 140.71545121 140.71534244 140.71534244 140.71545121 140.71569375 140.71613153 140.71688756 140.71818784 140.72041683 140.72416467 140.73020239 140.73926844 140.75154327 140.76585013 140.77903066 140.78634749 140.78344360 140.76900209 140.74619942 140.72260641 140.71398941 140.71398941 140.71398941 140.71398941 140.71398941 140.74193204 140.76558572 140.78113308 140.78576704 140.78031135 140.76856195 140.75498300 140.74278874 140.73338830 140.72684408 140.72258513 140.71992274 140.71828964 140.71729453 140.71669527 140.71635372 140.71619799 140.71619799 140.71635372 140.71669527 140.71729453 140.71828964 140.71992274 140.72258513 140.72684408 140.73338830 140.74278874 140.75498300 140.76856195 140.78031135 140.78576704 140.78113308 140.76558572 140.74193204 140.71398941 140.71398941 140.71398941 140.71398941 140.71398941 140.71398941 140.73682950 140.75911806 140.77598562 140.78366086 140.78177607 140.77300600 140.76119337 140.74953406 140.73979349 140.73246904 140.72732354 140.72385627 140.72157387 140.72009443 140.71915886 140.71860728 140.71835091 140.71835091 140.71860728 140.71915886 140.72009443 140.72157387 140.72385627 140.72732354 140.73246904 140.73979349 140.74953406 140.76119337 140.77300600 140.78177607 140.78366086 140.77598562 140.75911806 140.73682950 140.71398941 140.71398941 140.71398941 140.71398941 140.71398941 140.71398941 140.72860131 140.74862808 140.76696412 140.77847165 140.78148191 140.77725697 140.76865163 140.75858579 140.74910592 140.74121408 140.73513726 140.73068716 140.72753511 140.72536431 140.72392756 140.72305459 140.72264211 140.72264211 140.72305459 140.72392756 140.72536431 140.72753511 140.73068716 140.73513726 140.74121408 140.74910592 140.75858579 140.76865163 140.77725697 140.78148191 140.77847165 140.76696412 140.74862808 140.72860131 140.71398941 140.71398941 140.71398941 140.71398941 140.71398941 140.71398941 140.71398941 140.73330513 140.75354791 140.76885509 140.77725251 140.77872535 140.77487826 140.76798056 140.76005973 140.75249683 140.74600393 140.74079771 140.73682184 140.73391698 140.73191206 140.73066193 140.73006339 140.73006339 140.73066193 140.73191206 140.73391698 140.73682184 140.74079771 140.74600393 140.75249683 140.76005973 140.76798056 140.77487826 140.77872535 140.77725251 140.76885509 140.75354791 140.73330513 140.71398941 140.71398941 140.71398941 140.71398941 140.71398941 140.71398941 140.71398941 140.71398941 140.71398941 140.73712820 140.75459040 140.76755282 140.77487826 140.77680053 140.77464353 140.76998652 140.76426883 140.75853484 140.75338337 140.74909108 140.74575027 140.74335018 140.74182221 140.74108445 140.74108445 140.74182221 140.74335018 140.74575027 140.74909108 140.75338337 140.75853484 140.76426883 140.76998652 140.77464353 140.77680053 140.77487826 140.76755282 140.75459040 140.73712820 140.71398941 140.71398941 140.71398941 140.71398941 140.71398941 140.71398941 140.71398941 140.71398941 140.71398941 140.71398941 140.72366202 140.73677380 140.75223457 140.76431014 140.77176763 140.77512257 140.77511297 140.77286267 140.76945372 140.76566992 140.76206203 140.75901342 140.75673754 140.75527684 140.75457442 140.75457442 140.75527684 140.75673754 140.75901342 140.76206203 140.76566992 140.76945372 140.77286267 140.77511297 140.77512257 140.77176763 140.76431014 140.75223457 140.73677380 140.72366202 140.71398941 140.71398941 140.71398941 140.71398941 140.71398941 140.71398941 140.71398941 140.71398941 140.71398941 140.71398941 140.71398941 140.71398941 140.73270513 140.74776678 140.75883130 140.76709478 140.77194409 140.77403949 140.77422247 140.77310741 140.77133387 140.76953910 140.76817076 140.76734763 140.76698084 140.76698084 140.76734763 140.76817076 140.76953910 140.77133387 140.77310741 140.77422247 140.77403949 140.77194409 140.76709478 140.75883130 140.74776678 140.73270513 140.71398941 140.71398941 140.71398941 140.71398941 140.71398941 140.71398941 140.71398941 140.71398941 140.71398941 140.71398941 140.71398941 140.71398941 140.71398941 140.71398941 140.71398941 140.72894572 140.73922291 140.75086423 140.75917753 140.76512277 140.76915071 140.77122571 140.77189578 140.77202209 140.77228305 140.77270815 140.77301038 140.77301038 140.77270815 140.77228305 140.77202209 140.77189578 140.77122571 140.76915071 140.76512277 140.75917753 140.75086423 140.73922291 140.72894572 140.71398941 140.71398941 140.71398941 140.71398941 140.71398941 140.71398941 140.71398941 140.71398941 140.71398941 140.71398941 140.71398941 140.71398941 140.71398941 140.71398941 140.71398941 140.71398941 140.71398941 140.71398941 140.73008048 140.73870809 140.74696494 140.75395848 140.75842088 140.76097083 140.76282782 140.76508230 140.76720159 140.76839835 140.76839835 140.76720159 140.76508230 140.76282782 140.76097083 140.75842088 140.75395848 140.74696494 140.73870809 140.73008048 140.71398941 140.71398941 140.71398941 140.71398941 140.71398941 140.71398941 140.71398941 140.71398941 140.71398941 140.71398941 140.71398941 140.71398941 140.71398941 140.71398941 140.71398941 140.71398941 140.71398941 140.71398941 140.71398941 140.71398941 140.71398941 140.71398941 140.72490134 140.73300035 140.73747931 140.74002749 140.74233467 140.74699860 140.75111525 140.75319079 140.75319079 140.75111525 140.74699860 140.74233467 140.74002749 140.73747931 140.73300035 140.72490134 140.71398941 140.71398941 140.71398941 140.71398941 140.71398941 140.71398941 140.71398941 140.71398941 140.71398941 140.71398941 140.71398941 140.71398941 140.71398941 140.71398941 140.71398941 140.71398941 140.71398941 140.71398941 140.71398941 140.71398941 140.71398941 140.71398941 140.71398941 140.71398941 140.71398941 140.71398941 140.71398941 140.71398941 140.71398941 140.72434545 140.73033194 140.73264786 140.73264786 140.73033194 140.72434545 140.71398941 140.71398941 140.71398941 140.71398941 140.71398941 140.71398941 140.71398941 140.71398941 140.71398941 140.71398941 140.71398941 140.71398941 140.71398941 140.71398941 140.71398941 140.71398941 140.71398941 140.71398941 140.71398941 140.71398941 140.71398941 140.71398941 140.71398941 140.71398941 140.71398941 140.71398941 140.71398941 140.71398941 140.71398941 140.71398941 140.71398941 140.71398941 140.71398941 140.71398941 140.71398941 140.71398941 140.71398941 140.71398941 140.71398941 140.71398941 140.71398941 140.71398941 140.71398941 140.71398941 140.71398941 140.71398941 140.71398941 140.71398941 140.71398941 140.71398941 140.71398941 140.71398941 140.71398941 140.71398941 140.71398941 140.71398941 140.71398941 140.71398941 140.71398941 140.71398941 140.71398941 140.71398941 140.71398941 140.71398941 140.71398941 140.71398941 140.71398941 140.71398941 140.71398941 140.71398941 140.71398941 140.71398941 140.71398941 140.71398941 140.71398941 140.71398941 140.71398941 140.71398941 140.71398941 140.71398941 140.71398941 140.71398941 140.71398941 140.71398941 140.71398941 140.71398941 140.71398941 140.71398941 140.71398941 140.71398941 140.71398941 140.71398941 140.71398941 140.71398941 140.71398941 140.71398941 140.71398941 140.71398941 140.71398941 140.71398941 140.71398941 140.71398941 140.71398941 140.71398941 140.71398941 140.71398941 140.71398941 140.71398941 140.71398941 140.71398941 140.71398941 140.71398941 140.71398941 140.71398941 140.71398941 140.71398941 140.71398941 140.71398941 140.71398941 140.71398941 140.71398941 140.71398941 140.71398941 140.71398941 140.71398941 140.71398941 140.71398941 140.71398941 140.71398941 140.71398941 140.71398941 140.71398941 140.71398941 140.71398941 140.71398941 140.71398941 140.71398941 140.71398941 140.71398941 140.71398941 140.71398941 140.71398941 140.71398941 140.71398941 140.71398941 140.71398941 140.71398941 140.71398941 140.71398941 140.71398941 140.71398941 140.71398941 140.71398941 140.71398941 140.71398941 140.71398941 140.71398941 140.71398941 140.71398941 140.71398941 140.71398941 140.71398941 140.71398941 140.71398941 140.71398941 140.71398941 140.71398941 140.71398941 140.71398941 140.71398941 140.71398941 140.71398941 140.71398941 140.71398941 140.71398941 140.71398941 140.71398941 140.71398941 140.71398941 140.71398941 140.71398941 140.71398941 140.71398941 140.71398941 140.71398941 140.71398941 140.71398941 140.71398941 140.71398941 140.71398941 140.71398941 140.71398941 140.71398941 140.71398941 140.71398941 140.71398941 140.71398941 140.71398941 140.71398941 140.71398941 140.71398941 140.71398941 140.71398941 140.71398941 140.71398941 140.71398941 140.71398941 140.71398941 140.71398941 140.71398941 140.71398941 140.71398941 140.71398941 140.71398941 140.71398941 140.71398941 140.71398941 140.71398941 140.71398941 140.71398941 140.71398941 140.71398941 140.71398941 140.71398941 140.71398941 140.71398941 140.71398941 140.71398941 140.71398941 140.71398941 140.71398941 140.71398941 140.71398941 140.71398941 140.71398941 140.71398941 140.71398941 140.71398941 140.71398941 140.71398941 140.71398941 140.71398941 140.71398941 140.71398941 140.71398941 140.71398941 140.71398941 140.71398941 140.71398941 140.71398941 140.71398941 140.71398941 140.71398941 140.71398941 140.71398941 140.71398941 140.71398941 140.71398941 140.71398941 140.71398941 140.71398941 140.71398941 140.71398941 140.71398941 140.71398941 140.71398941 140.71398941 140.71398941 140.71398941 140.71398941 140.71398941 140.71398941 140.71398941 140.71398941 140.71398941 140.71398941 140.71398941 140.71398941 140.71398941 140.71398941 140.71398941 140.71398941 140.71398941 140.71398941 140.71398941 140.71398941 140.71398941 140.71398941 140.71398941 140.71398941 140.71398941 140.71398941 140.71398941 140.71398941 140.71398941 140.71398941 140.71398941 140.71398941 140.71398941 140.71398941 140.71398941 140.71398941 140.71398941 140.71398941 140.71398941 140.71398941 140.71398941 140.71398941 140.71398941 140.71398941 140.71398941 140.71398941 140.71398941 140.71398941 140.71398941 140.71398941 140.71398941 140.71398941 140.71398941 140.71398941 140.71398941 140.71398941 140.71398941 140.71398941 140.71398941 140.71398941 140.71398941 140.71398941 140.71398941 140.71398941 140.71398941 140.71398941 140.71398941 140.71398941 140.71398941 140.71398941 140.71398941 