# vtk DataFile Version 3.0
VTK - Matlab export
ASCII
DATASET STRUCTURED_POINTS
DIMENSIONS 40 40 1
SPACING 1 1 1
ORIGIN 0 0 0
POINT_DATA 1600
SCALARS lambda-2 float 1
LOOKUP_TABLE default
8.35311101 8.35311101 8.35311101 8.35311101 8.35311101 8.35311101 8.35311101 8.35311101 8.35311101 8.35311101 8.35311101 8.35311101 8.35311101 8.35311101 8.35311101 8.35311101 8.35311101 8.35311101 8.35311101 8.35311101 8.35311101 8.35311101 8.35311101 8.35311101 8.35311101 8.35311101 8.35311101 8.35311101 8.35311101 8.35311101 8.35311101 8.35311101 8.35311101 8.35311101 8.35311101 8.35311101 8.35311101 8.35311101 8.35311101 8.35311101 8.35311101 8.35311101 8.35311101 8.35311101 8.35311101 8.35311101 8.35311101 8.35311101 8.35311101 8.35311101 8.35311101 8.35311101 8.35311101 8.35311101 8.35311101 8.35311101 8.35311101 8.35311101 8.35311101 8.35311101 8.35311101 8.35311101 8.35311101 8.35311101 8.35311101 8.35311101 8.35311101 8.35311101 8.35311101 8.35311101 8.35311101 8.35311101 8.35311101 8.35311101 8.35311101 8.35311101 8.35311101 8.35311101 8.35311101 8.35311101 8.35311101 8.35311101 8.35311101 8.35311101 8.35311101 8.35311101 8.35311101 8.35311101 8.35311101 8.35311101 8.35311101 8.35311101 8.35311101 8.35311101 8.35311101 8.35311101 8.35311101 8.35311101 8.35311101 8.35311101 8.35311101 8.35311101 8.35311101 8.35311101 8.35311101 8.35311101 8.35311101 8.35311101 8.35311101 8.35311101 8.35311101 8.35311101 8.35311101 8.35311101 8.35311101 8.35311101 8.35311101 8.35311101 8.35311101 8.35311101 8.35311101 8.35311101 8.35311101 8.35311101 8.35311101 8.35311101 8.35311101 8.35311101 8.35311101 8.35311101 8.35311101 8.35311101 8.35311101 8.35311101 8.35311101 8.35311101 8.35311101 8.35311101 8.35311101 8.35311101 8.35311101 8.35311101 8.35311101 8.35311101 8.35311101 8.35311101 8.35311101 8.35311101 8.35311101 8.35311101 8.35311101 8.35311101 8.35311101 8.35311101 8.35311101 8.35311101 8.35311101 8.35311101 8.35311101 8.35311101 8.35311101 8.35311101 8.35311101 8.35311101 8.35311101 8.35311101 8.35311101 8.35311101 8.35311101 8.35311101 8.35311101 8.35311101 8.35311101 8.35311101 8.35311101 8.35311101 8.35311101 8.35311101 8.35311101 8.35311101 8.35311101 8.35311101 8.35311101 8.35311101 8.35311101 8.35311101 8.35311101 8.35311101 8.35311101 8.35311101 8.35311101 8.35311101 8.35311101 8.35311101 8.35311101 8.35311101 8.35311101 8.35311101 8.35311101 8.35311101 8.35311101 8.35311101 8.35311101 8.35311101 8.35311101 8.35311101 8.35311101 8.35311101 8.35311101 8.35311101 8.35311101 8.35311101 8.35311101 8.35311101 8.35311101 8.35311101 8.35311101 8.35311101 8.35311101 8.35311101 8.35311101 8.35311101 8.35311101 8.35311101 8.35311101 8.35311101 8.35311101 8.35311101 8.35311101 8.35311101 8.35311101 8.35311101 8.35311101 8.35311101 8.35311101 8.35311101 8.35311101 8.35311101 8.35311101 8.35311101 8.35311101 8.35311101 8.35311101 8.35311101 8.35311101 8.35311101 8.35311101 8.35311101 8.35311101 8.35311101 8.35311101 8.35311101 8.35311101 8.35311101 8.35311101 8.35311101 8.35311101 8.35311101 8.35311101 8.35311101 8.35311101 8.35311101 8.35311101 8.35311101 8.35311101 8.35311101 8.35311101 8.35311101 8.35311101 8.35311101 8.35311101 8.35311101 8.35311101 8.35311101 8.35311101 8.35311101 8.35311101 8.35311101 8.35311101 8.35311101 8.35311101 8.35311101 8.35311101 8.35311101 8.35311101 8.35311101 8.35311101 8.35311101 8.35311101 8.35311101 8.35311101 8.35311101 8.35311101 8.35311101 8.35311101 8.35311101 8.35311101 8.35311101 8.35311101 8.35311101 8.35311101 8.35311101 8.35311101 8.35311101 8.35311101 8.35311101 8.35311101 8.35311101 8.35311101 8.35311101 8.35311101 8.35311101 8.35311101 8.35311101 8.35311101 8.35311101 8.35311101 8.35311101 8.35311101 8.35311101 8.35311101 8.35311101 8.35311101 8.35311101 8.35311101 8.35311101 8.35311101 8.35311101 8.35311101 8.35311101 8.35311101 8.35311101 8.35311101 8.35311101 8.35311101 8.35311101 8.35311101 8.35115079 8.35009395 8.34970725 8.34970725 8.35009395 8.35115079 8.35311101 8.35311101 8.35311101 8.35311101 8.35311101 8.35311101 8.35311101 8.35311101 8.35311101 8.35311101 8.35311101 8.35311101 8.35311101 8.35311101 8.35311101 8.35311101 8.35311101 8.35311101 8.35311101 8.35311101 8.35311101 8.35311101 8.35311101 8.35311101 8.35311101 8.35311101 8.35311101 8.35311101 8.35311101 8.35104034 8.34949344 8.34856067 8.34794338 8.34738618 8.34646731 8.34572198 8.34536315 8.34536315 8.34572198 8.34646731 8.34738618 8.34794338 8.34856067 8.34949344 8.35104034 8.35311101 8.35311101 8.35311101 8.35311101 8.35311101 8.35311101 8.35311101 8.35311101 8.35311101 8.35311101 8.35311101 8.35311101 8.35311101 8.35311101 8.35311101 8.35311101 8.35311101 8.35311101 8.35311101 8.35311101 8.35311101 8.35311101 8.35003037 8.34828714 8.34653170 8.34493915 8.34373708 8.34285520 8.34214808 8.34148196 8.34095993 8.34068792 8.34068792 8.34095993 8.34148196 8.34214808 8.34285520 8.34373708 8.34493915 8.34653170 8.34828714 8.35003037 8.35311101 8.35311101 8.35311101 8.35311101 8.35311101 8.35311101 8.35311101 8.35311101 8.35311101 8.35311101 8.35311101 8.35311101 8.35311101 8.35311101 8.35311101 8.35311101 8.35311101 8.35311101 8.35023923 8.34812737 8.34561263 8.34352349 8.34172292 8.34019549 8.33900254 8.33811095 8.33743778 8.33691245 8.33653829 8.33634503 8.33634503 8.33653829 8.33691245 8.33743778 8.33811095 8.33900254 8.34019549 8.34172292 8.34352349 8.34561263 8.34812737 8.35023923 8.35311101 8.35311101 8.35311101 8.35311101 8.35311101 8.35311101 8.35311101 8.35311101 8.35311101 8.35311101 8.35311101 8.35311101 8.35311101 8.35311101 8.35311101 8.34947114 8.34630354 8.34355189 8.34102009 8.33888906 8.33715765 8.33579433 8.33477601 8.33404857 8.33353850 8.33318267 8.33295087 8.33283581 8.33283581 8.33295087 8.33318267 8.33353850 8.33404857 8.33477601 8.33579433 8.33715765 8.33888906 8.34102009 8.34355189 8.34630354 8.34947114 8.35311101 8.35311101 8.35311101 8.35311101 8.35311101 8.35311101 8.35311101 8.35311101 8.35311101 8.35311101 8.35311101 8.35311101 8.35135327 8.34876442 8.34535384 8.34206342 8.33914195 8.33665195 8.33466093 8.33315860 8.33208877 8.33137848 8.33094198 8.33069215 8.33055639 8.33048676 8.33045745 8.33045745 8.33048676 8.33055639 8.33069215 8.33094198 8.33137848 8.33208877 8.33315860 8.33466093 8.33665195 8.33914195 8.34206342 8.34535384 8.34876442 8.35135327 8.35311101 8.35311101 8.35311101 8.35311101 8.35311101 8.35311101 8.35311101 8.35311101 8.35311101 8.35311101 8.34884874 8.34507974 8.34138334 8.33799225 8.33509296 8.33277858 8.33107565 8.32993980 8.32927803 8.32897570 8.32891467 8.32898758 8.32910869 8.32921842 8.32928134 8.32928134 8.32921842 8.32910869 8.32898758 8.32891467 8.32897570 8.32927803 8.32993980 8.33107565 8.33277858 8.33509296 8.33799225 8.34138334 8.34507974 8.34884874 8.35311101 8.35311101 8.35311101 8.35311101 8.35311101 8.35311101 8.35311101 8.35311101 8.35311101 8.34974876 8.34570152 8.34162101 8.33775858 8.33436096 8.33160641 8.32957755 8.32826563 8.32758486 8.32740009 8.32755747 8.32790869 8.32832694 8.32871503 8.32900636 8.32916114 8.32916114 8.32900636 8.32871503 8.32832694 8.32790869 8.32755747 8.32740009 8.32758486 8.32826563 8.32957755 8.33160641 8.33436096 8.33775858 8.34162101 8.34570152 8.34974876 8.35311101 8.35311101 8.35311101 8.35311101 8.35311101 8.35311101 8.35311101 8.35073295 8.34709743 8.34287703 8.33861051 8.33467331 8.33134697 8.32880934 8.32712325 8.32624381 8.32604258 8.32634272 8.32695486 8.32770492 8.32845054 8.32908684 8.32954421 8.32978204 8.32978204 8.32954421 8.32908684 8.32845054 8.32770492 8.32695486 8.32634272 8.32604258 8.32624381 8.32712325 8.32880934 8.33134697 8.33467331 8.33861051 8.34287703 8.34709743 8.35073295 8.35311101 8.35311101 8.35311101 8.35311101 8.35311101 8.35311101 8.34938910 8.34516800 8.34065542 8.33623461 8.33227176 8.32905285 8.32674809 8.32539784 8.32492323 8.32515731 8.32588700 8.32689375 8.32798365 8.32900362 8.32984480 8.33043753 8.33074251 8.33074251 8.33043753 8.32984480 8.32900362 8.32798365 8.32689375 8.32588700 8.32515731 8.32492323 8.32539784 8.32674809 8.32905285 8.33227176 8.33623461 8.34065542 8.34516800 8.34938910 8.35311101 8.35311101 8.35311101 8.35311101 8.35311101 8.35311101 8.34852721 8.34387369 8.33913013 8.33460219 8.33063864 8.32752092 8.32540942 8.32432524 8.32416279 8.32472596 8.32577502 8.32707077 8.32840617 8.32962178 8.33060741 8.33129467 8.33164625 8.33164625 8.33129467 8.33060741 8.32962178 8.32840617 8.32707077 8.32577502 8.32472596 8.32416279 8.32432524 8.32540942 8.32752092 8.33063864 8.33460219 8.33913013 8.34387369 8.34852721 8.35311101 8.35311101 8.35311101 8.35311101 8.35311101 8.35175214 8.34782927 8.34316760 8.33834438 8.33377103 8.32981435 8.32675728 8.32475489 8.32381738 8.32382452 8.32456443 8.32578330 8.32723133 8.32869493 8.33001189 8.33107179 8.33180736 8.33218266 8.33218266 8.33180736 8.33107179 8.33001189 8.32869493 8.32723133 8.32578330 8.32456443 8.32382452 8.32381738 8.32475489 8.32675728 8.32981435 8.33377103 8.33834438 8.34316760 8.34782927 8.35175214 8.35311101 8.35311101 8.35311101 8.35311101 8.35175214 8.34782927 8.34316760 8.33834438 8.33377103 8.32981435 8.32675728 8.32475489 8.32381738 8.32382452 8.32456443 8.32578330 8.32723133 8.32869493 8.33001189 8.33107179 8.33180736 8.33218266 8.33218266 8.33180736 8.33107179 8.33001189 8.32869493 8.32723133 8.32578330 8.32456443 8.32382452 8.32381738 8.32475489 8.32675728 8.32981435 8.33377103 8.33834438 8.34316760 8.34782927 8.35175214 8.35311101 8.35311101 8.35311101 8.35311101 8.35311101 8.34852721 8.34387369 8.33913013 8.33460219 8.33063864 8.32752092 8.32540942 8.32432524 8.32416279 8.32472596 8.32577502 8.32707077 8.32840617 8.32962178 8.33060741 8.33129467 8.33164625 8.33164625 8.33129467 8.33060741 8.32962178 8.32840617 8.32707077 8.32577502 8.32472596 8.32416279 8.32432524 8.32540942 8.32752092 8.33063864 8.33460219 8.33913013 8.34387369 8.34852721 8.35311101 8.35311101 8.35311101 8.35311101 8.35311101 8.35311101 8.34938910 8.34516800 8.34065542 8.33623461 8.33227176 8.32905285 8.32674809 8.32539784 8.32492323 8.32515731 8.32588700 8.32689375 8.32798365 8.32900362 8.32984480 8.33043753 8.33074251 8.33074251 8.33043753 8.32984480 8.32900362 8.32798365 8.32689375 8.32588700 8.32515731 8.32492323 8.32539784 8.32674809 8.32905285 8.33227176 8.33623461 8.34065542 8.34516800 8.34938910 8.35311101 8.35311101 8.35311101 8.35311101 8.35311101 8.35311101 8.35073295 8.34709743 8.34287703 8.33861051 8.33467331 8.33134697 8.32880934 8.32712325 8.32624381 8.32604258 8.32634272 8.32695486 8.32770492 8.32845054 8.32908684 8.32954421 8.32978204 8.32978204 8.32954421 8.32908684 8.32845054 8.32770492 8.32695486 8.32634272 8.32604258 8.32624381 8.32712325 8.32880934 8.33134697 8.33467331 8.33861051 8.34287703 8.34709743 8.35073295 8.35311101 8.35311101 8.35311101 8.35311101 8.35311101 8.35311101 8.35311101 8.34974876 8.34570152 8.34162101 8.33775858 8.33436096 8.33160641 8.32957755 8.32826563 8.32758486 8.32740009 8.32755747 8.32790869 8.32832694 8.32871503 8.32900636 8.32916114 8.32916114 8.32900636 8.32871503 8.32832694 8.32790869 8.32755747 8.32740009 8.32758486 8.32826563 8.32957755 8.33160641 8.33436096 8.33775858 8.34162101 8.34570152 8.34974876 8.35311101 8.35311101 8.35311101 8.35311101 8.35311101 8.35311101 8.35311101 8.35311101 8.35311101 8.34884874 8.34507974 8.34138334 8.33799225 8.33509296 8.33277858 8.33107565 8.32993980 8.32927803 8.32897570 8.32891467 8.32898758 8.32910869 8.32921842 8.32928134 8.32928134 8.32921842 8.32910869 8.32898758 8.32891467 8.32897570 8.32927803 8.32993980 8.33107565 8.33277858 8.33509296 8.33799225 8.34138334 8.34507974 8.34884874 8.35311101 8.35311101 8.35311101 8.35311101 8.35311101 8.35311101 8.35311101 8.35311101 8.35311101 8.35311101 8.35135327 8.34876442 8.34535384 8.34206342 8.33914195 8.33665195 8.33466093 8.33315860 8.33208877 8.33137848 8.33094198 8.33069215 8.33055639 8.33048676 8.33045745 8.33045745 8.33048676 8.33055639 8.33069215 8.33094198 8.33137848 8.33208877 8.33315860 8.33466093 8.33665195 8.33914195 8.34206342 8.34535384 8.34876442 8.35135327 8.35311101 8.35311101 8.35311101 8.35311101 8.35311101 8.35311101 8.35311101 8.35311101 8.35311101 8.35311101 8.35311101 8.35311101 8.34947114 8.34630354 8.34355189 8.34102009 8.33888906 8.33715765 8.33579433 8.33477601 8.33404857 8.33353850 8.33318267 8.33295087 8.33283581 8.33283581 8.33295087 8.33318267 8.33353850 8.33404857 8.33477601 8.33579433 8.33715765 8.33888906 8.34102009 8.34355189 8.34630354 8.34947114 8.35311101 8.35311101 8.35311101 8.35311101 8.35311101 8.35311101 8.35311101 8.35311101 8.35311101 8.35311101 8.35311101 8.35311101 8.35311101 8.35311101 8.35311101 8.35023923 8.34812737 8.34561263 8.34352349 8.34172292 8.34019549 8.33900254 8.33811095 8.33743778 8.33691245 8.33653829 8.33634503 8.33634503 8.33653829 8.33691245 8.33743778 8.33811095 8.33900254 8.34019549 8.34172292 8.34352349 8.34561263 8.34812737 8.35023923 8.35311101 8.35311101 8.35311101 8.35311101 8.35311101 8.35311101 8.35311101 8.35311101 8.35311101 8.35311101 8.35311101 8.35311101 8.35311101 8.35311101 8.35311101 8.35311101 8.35311101 8.35311101 8.35003037 8.34828714 8.34653170 8.34493915 8.34373708 8.34285520 8.34214808 8.34148196 8.34095993 8.34068792 8.34068792 8.34095993 8.34148196 8.34214808 8.34285520 8.34373708 8.34493915 8.34653170 8.34828714 8.35003037 8.35311101 8.35311101 8.35311101 8.35311101 8.35311101 8.35311101 8.35311101 8.35311101 8.35311101 8.35311101 8.35311101 8.35311101 8.35311101 8.35311101 8.35311101 8.35311101 8.35311101 8.35311101 8.35311101 8.35311101 8.35311101 8.35311101 8.35104034 8.34949344 8.34856067 8.34794338 8.34738618 8.34646731 8.34572198 8.34536315 8.34536315 8.34572198 8.34646731 8.34738618 8.34794338 8.34856067 8.34949344 8.35104034 8.35311101 8.35311101 8.35311101 8.35311101 8.35311101 8.35311101 8.35311101 8.35311101 8.35311101 8.35311101 8.35311101 8.35311101 8.35311101 8.35311101 8.35311101 8.35311101 8.35311101 8.35311101 8.35311101 8.35311101 8.35311101 8.35311101 8.35311101 8.35311101 8.35311101 8.35311101 8.35311101 8.35311101 8.35311101 8.35115079 8.35009395 8.34970725 8.34970725 8.35009395 8.35115079 8.35311101 8.35311101 8.35311101 8.35311101 8.35311101 8.35311101 8.35311101 8.35311101 8.35311101 8.35311101 8.35311101 8.35311101 8.35311101 8.35311101 8.35311101 8.35311101 8.35311101 8.35311101 8.35311101 8.35311101 8.35311101 8.35311101 8.35311101 8.35311101 8.35311101 8.35311101 8.35311101 8.35311101 8.35311101 8.35311101 8.35311101 8.35311101 8.35311101 8.35311101 8.35311101 8.35311101 8.35311101 8.35311101 8.35311101 8.35311101 8.35311101 8.35311101 8.35311101 8.35311101 8.35311101 8.35311101 8.35311101 8.35311101 8.35311101 8.35311101 8.35311101 8.35311101 8.35311101 8.35311101 8.35311101 8.35311101 8.35311101 8.35311101 8.35311101 8.35311101 8.35311101 8.35311101 8.35311101 8.35311101 8.35311101 8.35311101 8.35311101 8.35311101 8.35311101 8.35311101 8.35311101 8.35311101 8.35311101 8.35311101 8.35311101 8.35311101 8.35311101 8.35311101 8.35311101 8.35311101 8.35311101 8.35311101 8.35311101 8.35311101 8.35311101 8.35311101 8.35311101 8.35311101 8.35311101 8.35311101 8.35311101 8.35311101 8.35311101 8.35311101 8.35311101 8.35311101 8.35311101 8.35311101 8.35311101 8.35311101 8.35311101 8.35311101 8.35311101 8.35311101 8.35311101 8.35311101 8.35311101 8.35311101 8.35311101 8.35311101 8.35311101 8.35311101 8.35311101 8.35311101 8.35311101 8.35311101 8.35311101 8.35311101 8.35311101 8.35311101 8.35311101 8.35311101 8.35311101 8.35311101 8.35311101 8.35311101 8.35311101 8.35311101 8.35311101 8.35311101 8.35311101 8.35311101 8.35311101 8.35311101 8.35311101 8.35311101 8.35311101 8.35311101 8.35311101 8.35311101 8.35311101 8.35311101 8.35311101 8.35311101 8.35311101 8.35311101 8.35311101 8.35311101 8.35311101 8.35311101 8.35311101 8.35311101 8.35311101 8.35311101 8.35311101 8.35311101 8.35311101 8.35311101 8.35311101 8.35311101 8.35311101 8.35311101 8.35311101 8.35311101 8.35311101 8.35311101 8.35311101 8.35311101 8.35311101 8.35311101 8.35311101 8.35311101 8.35311101 8.35311101 8.35311101 8.35311101 8.35311101 8.35311101 8.35311101 8.35311101 8.35311101 8.35311101 8.35311101 8.35311101 8.35311101 8.35311101 8.35311101 8.35311101 8.35311101 8.35311101 8.35311101 8.35311101 8.35311101 8.35311101 8.35311101 8.35311101 8.35311101 8.35311101 8.35311101 8.35311101 8.35311101 8.35311101 8.35311101 8.35311101 8.35311101 8.35311101 8.35311101 8.35311101 8.35311101 8.35311101 8.35311101 8.35311101 8.35311101 8.35311101 8.35311101 8.35311101 8.35311101 8.35311101 8.35311101 8.35311101 8.35311101 8.35311101 8.35311101 8.35311101 8.35311101 8.35311101 8.35311101 8.35311101 8.35311101 8.35311101 8.35311101 8.35311101 8.35311101 8.35311101 8.35311101 8.35311101 8.35311101 8.35311101 8.35311101 8.35311101 8.35311101 8.35311101 8.35311101 8.35311101 8.35311101 8.35311101 8.35311101 8.35311101 8.35311101 8.35311101 8.35311101 8.35311101 8.35311101 8.35311101 8.35311101 8.35311101 8.35311101 8.35311101 8.35311101 8.35311101 8.35311101 8.35311101 8.35311101 8.35311101 8.35311101 8.35311101 8.35311101 8.35311101 8.35311101 8.35311101 8.35311101 8.35311101 8.35311101 8.35311101 8.35311101 8.35311101 8.35311101 8.35311101 8.35311101 8.35311101 8.35311101 8.35311101 8.35311101 8.35311101 8.35311101 8.35311101 8.35311101 8.35311101 8.35311101 8.35311101 8.35311101 8.35311101 8.35311101 8.35311101 8.35311101 8.35311101 8.35311101 8.35311101 8.35311101 8.35311101 8.35311101 8.35311101 8.35311101 8.35311101 8.35311101 8.35311101 8.35311101 8.35311101 8.35311101 8.35311101 8.35311101 8.35311101 8.35311101 8.35311101 8.35311101 8.35311101 8.35311101 8.35311101 8.35311101 8.35311101 8.35311101 8.35311101 8.35311101 8.35311101 8.35311101 8.35311101 8.35311101 8.35311101 8.35311101 8.35311101 8.35311101 8.35311101 8.35311101 8.35311101 8.35311101 8.35311101 8.35311101 