# vtk DataFile Version 3.0
VTK - Matlab export
ASCII
DATASET STRUCTURED_POINTS
DIMENSIONS 40 40 1
SPACING 1 1 1
ORIGIN 0 0 0
POINT_DATA 1600
SCALARS Temperature float 1
LOOKUP_TABLE default
200.00000000 200.00000000 200.00000000 200.00000000 200.00000000 200.00000000 200.00000000 200.00000000 200.00000000 200.00000000 200.00000000 200.00000000 200.00000000 200.00000000 200.00000000 200.00000000 200.00000000 200.00000000 200.00000000 200.00000000 200.00000000 200.00000000 200.00000000 200.00000000 200.00000000 200.00000000 200.00000000 200.00000000 200.00000000 200.00000000 200.00000000 200.00000000 200.00000000 200.00000000 200.00000000 200.00000000 200.00000000 200.00000000 200.00000000 200.00000000 200.00000000 200.00000000 200.00000000 200.00000000 200.00000000 200.00000000 200.00000000 200.00000000 200.00000000 200.00000000 200.00000000 200.00000000 200.00000000 200.00000000 200.00000000 200.00000000 200.00000000 200.00000000 200.00000000 200.00000000 200.00000000 200.00000000 200.00000000 200.00000000 200.00000000 200.00000000 200.00000000 200.00000000 200.00000000 200.00000000 200.00000000 200.00000000 200.00000000 200.00000000 200.00000000 200.00000000 200.00000000 200.00000000 200.00000000 200.00000000 200.00000000 200.00000000 200.00000000 200.00000000 200.00000000 200.00000000 200.00000000 200.00000000 200.00000000 200.00000000 200.00000000 200.00000000 200.00000000 200.00000000 200.00000000 200.00000000 200.00000000 200.00000000 200.00000000 200.00000000 200.00000000 200.00000000 200.00000000 200.00000000 200.00000000 200.00000000 200.00000000 200.00000000 200.00000000 200.00000000 200.00000000 200.00000000 200.00000000 200.00000000 200.00000000 200.00000000 200.00000000 200.00000000 200.00000000 200.00000000 200.00000000 200.00000000 200.00000000 200.00000000 200.00000000 200.00000000 200.00000000 200.00000000 200.00000000 200.00000000 200.00000000 200.00000000 200.00000000 200.00000000 200.00000000 200.00000000 200.00000000 200.00000000 200.00000000 200.00000000 200.00000000 200.00000000 200.00000000 200.00000000 200.00000000 200.00000000 200.00000000 200.00000000 200.00000000 200.00000000 200.00000000 200.00000000 200.00000000 200.00000000 200.00000000 200.00000000 200.00000000 200.00000000 200.00000000 200.00000000 200.00000000 200.00000000 200.00000000 200.00000000 200.00000000 200.00000000 200.00000000 200.00000000 200.00000000 200.00000000 200.00000000 200.00000000 200.00000000 200.00000000 200.00000000 200.00000000 200.00000000 200.00000000 200.00000000 200.00000000 200.00000000 200.00000000 200.00000000 200.00000000 200.00000000 200.00000000 200.00000000 200.00000000 200.00000000 200.00000000 200.00000000 200.00000000 200.00000000 200.00000000 200.00000000 200.00000000 200.00000000 200.00000000 200.00000000 200.00000000 200.00000000 200.00000000 200.00000000 200.00000000 200.00000000 200.00000000 200.00000000 200.00000000 200.00000000 200.00000000 200.00000000 200.00000000 200.00000000 200.00000000 200.00000000 200.00000000 200.00000000 200.00000000 200.00000000 200.00000000 200.00000000 200.00000000 200.00000000 200.00000000 200.00000000 200.00000000 200.00000000 200.00000000 200.00000000 200.00000000 200.00000000 200.00000000 200.00000000 200.00000000 200.00000000 200.00000000 200.00000000 200.00000000 200.00000000 200.00000000 200.00000000 200.00000000 200.00000000 200.00000000 200.00000000 200.00000000 200.00000000 200.00000000 200.00000000 200.00000000 200.00000000 200.00000000 200.00000000 200.00000000 200.00000000 200.00000000 200.00000000 200.00000000 200.00000000 200.00000000 200.00000000 200.00000000 200.00000000 200.00000000 200.00000000 200.00000000 200.00000000 200.00000000 200.00000000 200.00000000 200.00000000 200.00000000 200.00000000 200.00000000 200.00000000 200.00000000 200.00000000 200.00000000 200.00000000 200.00000000 200.00000000 200.00000000 200.00000000 200.00000000 200.00000000 200.00000000 200.00000000 200.00000000 200.00000000 200.00000000 200.00000000 200.00000000 200.00000000 200.00000000 200.00000000 200.00000000 200.00000000 200.00000000 200.00000000 200.00000000 200.00000000 200.00000000 200.00000000 200.00000000 200.00000000 200.00000000 200.00000000 200.00000000 200.00000000 200.00000000 200.00000000 200.00000000 200.00000000 200.00000000 200.00000000 200.00000000 200.00000000 200.00000000 200.00000000 200.00000000 200.00000000 200.00000000 200.00000000 200.00000000 200.00000000 200.00000000 200.00000000 200.00000000 200.00000000 200.00000000 200.00000000 200.00000000 200.00000000 200.00000000 200.00000000 200.00000000 200.00000000 274.45901979 318.33741939 335.60503712 335.60503712 318.33741939 274.45901979 200.00000000 200.00000000 200.00000000 200.00000000 200.00000000 200.00000000 200.00000000 200.00000000 200.00000000 200.00000000 200.00000000 200.00000000 200.00000000 200.00000000 200.00000000 200.00000000 200.00000000 200.00000000 200.00000000 200.00000000 200.00000000 200.00000000 200.00000000 200.00000000 200.00000000 200.00000000 200.00000000 200.00000000 200.00000000 276.90261512 334.65829151 366.66750130 384.71259994 401.27683932 435.35716726 465.87999624 481.34342116 481.34342116 465.87999624 435.35716726 401.27683932 384.71259994 366.66750130 334.65829151 276.90261512 200.00000000 200.00000000 200.00000000 200.00000000 200.00000000 200.00000000 200.00000000 200.00000000 200.00000000 200.00000000 200.00000000 200.00000000 200.00000000 200.00000000 200.00000000 200.00000000 200.00000000 200.00000000 200.00000000 200.00000000 200.00000000 200.00000000 312.17255805 372.44973398 430.71139271 481.05803458 513.97981078 533.56736023 548.53647010 566.44830946 582.93141489 592.03471744 592.03471744 582.93141489 566.44830946 548.53647010 533.56736023 513.97981078 481.05803458 430.71139271 372.44973398 312.17255805 200.00000000 200.00000000 200.00000000 200.00000000 200.00000000 200.00000000 200.00000000 200.00000000 200.00000000 200.00000000 200.00000000 200.00000000 200.00000000 200.00000000 200.00000000 200.00000000 200.00000000 200.00000000 303.09266326 374.13002405 455.19780887 513.74036421 557.58392541 590.59620050 611.91671907 624.33787436 632.79891526 640.91852584 648.05718284 652.07717037 652.07717037 648.05718284 640.91852584 632.79891526 624.33787436 611.91671907 590.59620050 557.58392541 513.74036421 455.19780887 374.13002405 303.09266326 200.00000000 200.00000000 200.00000000 200.00000000 200.00000000 200.00000000 200.00000000 200.00000000 200.00000000 200.00000000 200.00000000 200.00000000 200.00000000 200.00000000 200.00000000 327.06474651 430.53618119 507.42649858 567.45897679 607.73276022 633.63878082 650.44501489 660.51295532 666.05162224 669.49084393 672.41740897 674.87727211 676.25794638 676.25794638 674.87727211 672.41740897 669.49084393 666.05162224 660.51295532 650.44501489 633.63878082 607.73276022 567.45897679 507.42649858 430.53618119 327.06474651 200.00000000 200.00000000 200.00000000 200.00000000 200.00000000 200.00000000 200.00000000 200.00000000 200.00000000 200.00000000 200.00000000 200.00000000 264.37317296 351.98788374 456.56201142 540.68503810 598.27825888 635.17817097 656.66883721 668.59697705 675.29701922 678.93837920 680.79708362 681.85809325 682.69332686 683.37213361 683.74904752 683.74904752 683.37213361 682.69332686 681.85809325 680.79708362 678.93837920 675.29701922 668.59697705 656.66883721 635.17817097 598.27825888 540.68503810 456.56201142 351.98788374 264.37317296 200.00000000 200.00000000 200.00000000 200.00000000 200.00000000 200.00000000 200.00000000 200.00000000 200.00000000 200.00000000 351.56498459 466.65517578 555.30692916 614.50848881 649.13546542 667.68044725 676.87669432 681.25190523 683.37711783 684.41299591 684.89828936 685.15370901 685.34422741 685.49561964 685.57852226 685.57852226 685.49561964 685.34422741 685.15370901 684.89828936 684.41299591 683.37711783 681.25190523 676.87669432 667.68044725 649.13546542 614.50848881 555.30692916 466.65517578 351.56498459 200.00000000 200.00000000 200.00000000 200.00000000 200.00000000 200.00000000 200.00000000 200.00000000 200.00000000 324.48725424 454.45013925 554.36092476 619.06680232 655.01432243 672.56892765 680.37932561 683.62539631 684.93116863 685.47460300 685.70968031 685.80985617 685.85850615 685.89353034 685.92101560 685.93582055 685.93582055 685.92101560 685.89353034 685.85850615 685.80985617 685.70968031 685.47460300 684.93116863 683.62539631 680.37932561 672.56892765 655.01432243 619.06680232 554.36092476 454.45013925 324.48725424 200.00000000 200.00000000 200.00000000 200.00000000 200.00000000 200.00000000 200.00000000 294.20298856 420.80555510 534.62098384 611.88035178 654.23204251 673.77596499 681.64041626 684.50259369 685.47701346 685.80062438 685.91383565 685.95672015 685.97319605 685.98057972 685.98580327 685.98988616 685.99204075 685.99204075 685.98988616 685.98580327 685.98057972 685.97319605 685.95672015 685.91383565 685.80062438 685.47701346 684.50259369 681.64041626 673.77596499 654.23204251 611.88035178 534.62098384 420.80555510 294.20298856 200.00000000 200.00000000 200.00000000 200.00000000 200.00000000 200.00000000 345.69723039 483.25170103 585.25688400 643.97579530 670.99219239 681.29133539 684.65814964 685.63640601 685.89955447 685.96874894 685.98835569 685.99471714 685.99689666 685.99779701 685.99843439 685.99893358 685.99918988 685.99918988 685.99893358 685.99843439 685.99779701 685.99689666 685.99471714 685.98835569 685.96874894 685.89955447 685.63640601 684.65814964 681.29133539 670.99219239 643.97579530 585.25688400 483.25170103 345.69723039 200.00000000 200.00000000 200.00000000 200.00000000 200.00000000 200.00000000 376.18576979 519.27860356 612.49492947 659.39884501 677.97838256 683.94398751 685.53982879 685.90595441 685.98089995 685.99551564 685.99862197 685.99944300 685.99968874 685.99978155 685.99984858 685.99990161 685.99992788 685.99992788 685.99990161 685.99984858 685.99978155 685.99968874 685.99944300 685.99862197 685.99551564 685.98089995 685.90595441 685.53982879 683.94398751 677.97838256 659.39884501 612.49492947 519.27860356 376.18576979 200.00000000 200.00000000 200.00000000 200.00000000 200.00000000 254.57461223 402.10642489 537.88536396 624.44000844 665.42923166 680.39926944 684.74125388 685.76292817 685.96154897 685.99424785 685.99904693 685.99977502 685.99992023 685.99995641 685.99996894 685.99997917 685.99998760 685.99999159 685.99999159 685.99998760 685.99997917 685.99996894 685.99995641 685.99992023 685.99977502 685.99904693 685.99424785 685.96154897 685.76292817 684.74125388 680.39926944 665.42923166 624.44000844 537.88536396 402.10642489 254.57461223 200.00000000 200.00000000 200.00000000 200.00000000 254.57461223 402.10642489 537.88536396 624.44000844 665.42923166 680.39926944 684.74125388 685.76292817 685.96154897 685.99424785 685.99904693 685.99977502 685.99992023 685.99995641 685.99996894 685.99997917 685.99998760 685.99999159 685.99999159 685.99998760 685.99997917 685.99996894 685.99995641 685.99992023 685.99977502 685.99904693 685.99424785 685.96154897 685.76292817 684.74125388 680.39926944 665.42923166 624.44000844 537.88536396 402.10642489 254.57461223 200.00000000 200.00000000 200.00000000 200.00000000 200.00000000 376.18576979 519.27860356 612.49492947 659.39884501 677.97838256 683.94398751 685.53982879 685.90595441 685.98089995 685.99551564 685.99862197 685.99944300 685.99968874 685.99978155 685.99984858 685.99990161 685.99992788 685.99992788 685.99990161 685.99984858 685.99978155 685.99968874 685.99944300 685.99862197 685.99551564 685.98089995 685.90595441 685.53982879 683.94398751 677.97838256 659.39884501 612.49492947 519.27860356 376.18576979 200.00000000 200.00000000 200.00000000 200.00000000 200.00000000 200.00000000 345.69723039 483.25170103 585.25688400 643.97579530 670.99219239 681.29133539 684.65814964 685.63640601 685.89955447 685.96874894 685.98835569 685.99471714 685.99689666 685.99779701 685.99843439 685.99893358 685.99918988 685.99918988 685.99893358 685.99843439 685.99779701 685.99689666 685.99471714 685.98835569 685.96874894 685.89955447 685.63640601 684.65814964 681.29133539 670.99219239 643.97579530 585.25688400 483.25170103 345.69723039 200.00000000 200.00000000 200.00000000 200.00000000 200.00000000 200.00000000 294.20298856 420.80555510 534.62098384 611.88035178 654.23204251 673.77596499 681.64041626 684.50259369 685.47701346 685.80062438 685.91383565 685.95672015 685.97319605 685.98057972 685.98580327 685.98988616 685.99204075 685.99204075 685.98988616 685.98580327 685.98057972 685.97319605 685.95672015 685.91383565 685.80062438 685.47701346 684.50259369 681.64041626 673.77596499 654.23204251 611.88035178 534.62098384 420.80555510 294.20298856 200.00000000 200.00000000 200.00000000 200.00000000 200.00000000 200.00000000 200.00000000 324.48725424 454.45013925 554.36092476 619.06680232 655.01432243 672.56892765 680.37932561 683.62539631 684.93116863 685.47460300 685.70968031 685.80985617 685.85850615 685.89353034 685.92101560 685.93582055 685.93582055 685.92101560 685.89353034 685.85850615 685.80985617 685.70968031 685.47460300 684.93116863 683.62539631 680.37932561 672.56892765 655.01432243 619.06680232 554.36092476 454.45013925 324.48725424 200.00000000 200.00000000 200.00000000 200.00000000 200.00000000 200.00000000 200.00000000 200.00000000 200.00000000 351.56498459 466.65517578 555.30692916 614.50848881 649.13546542 667.68044725 676.87669432 681.25190523 683.37711783 684.41299591 684.89828936 685.15370901 685.34422741 685.49561964 685.57852226 685.57852226 685.49561964 685.34422741 685.15370901 684.89828936 684.41299591 683.37711783 681.25190523 676.87669432 667.68044725 649.13546542 614.50848881 555.30692916 466.65517578 351.56498459 200.00000000 200.00000000 200.00000000 200.00000000 200.00000000 200.00000000 200.00000000 200.00000000 200.00000000 200.00000000 264.37317296 351.98788374 456.56201142 540.68503810 598.27825888 635.17817097 656.66883721 668.59697705 675.29701922 678.93837920 680.79708362 681.85809325 682.69332686 683.37213361 683.74904752 683.74904752 683.37213361 682.69332686 681.85809325 680.79708362 678.93837920 675.29701922 668.59697705 656.66883721 635.17817097 598.27825888 540.68503810 456.56201142 351.98788374 264.37317296 200.00000000 200.00000000 200.00000000 200.00000000 200.00000000 200.00000000 200.00000000 200.00000000 200.00000000 200.00000000 200.00000000 200.00000000 327.06474651 430.53618119 507.42649858 567.45897679 607.73276022 633.63878082 650.44501489 660.51295532 666.05162224 669.49084393 672.41740897 674.87727211 676.25794638 676.25794638 674.87727211 672.41740897 669.49084393 666.05162224 660.51295532 650.44501489 633.63878082 607.73276022 567.45897679 507.42649858 430.53618119 327.06474651 200.00000000 200.00000000 200.00000000 200.00000000 200.00000000 200.00000000 200.00000000 200.00000000 200.00000000 200.00000000 200.00000000 200.00000000 200.00000000 200.00000000 200.00000000 303.09266326 374.13002405 455.19780887 513.74036421 557.58392541 590.59620050 611.91671907 624.33787436 632.79891526 640.91852584 648.05718284 652.07717037 652.07717037 648.05718284 640.91852584 632.79891526 624.33787436 611.91671907 590.59620050 557.58392541 513.74036421 455.19780887 374.13002405 303.09266326 200.00000000 200.00000000 200.00000000 200.00000000 200.00000000 200.00000000 200.00000000 200.00000000 200.00000000 200.00000000 200.00000000 200.00000000 200.00000000 200.00000000 200.00000000 200.00000000 200.00000000 200.00000000 312.17255805 372.44973398 430.71139271 481.05803458 513.97981078 533.56736023 548.53647010 566.44830946 582.93141489 592.03471744 592.03471744 582.93141489 566.44830946 548.53647010 533.56736023 513.97981078 481.05803458 430.71139271 372.44973398 312.17255805 200.00000000 200.00000000 200.00000000 200.00000000 200.00000000 200.00000000 200.00000000 200.00000000 200.00000000 200.00000000 200.00000000 200.00000000 200.00000000 200.00000000 200.00000000 200.00000000 200.00000000 200.00000000 200.00000000 200.00000000 200.00000000 200.00000000 276.90261512 334.65829151 366.66750130 384.71259994 401.27683932 435.35716726 465.87999624 481.34342116 481.34342116 465.87999624 435.35716726 401.27683932 384.71259994 366.66750130 334.65829151 276.90261512 200.00000000 200.00000000 200.00000000 200.00000000 200.00000000 200.00000000 200.00000000 200.00000000 200.00000000 200.00000000 200.00000000 200.00000000 200.00000000 200.00000000 200.00000000 200.00000000 200.00000000 200.00000000 200.00000000 200.00000000 200.00000000 200.00000000 200.00000000 200.00000000 200.00000000 200.00000000 200.00000000 200.00000000 200.00000000 274.45901979 318.33741939 335.60503712 335.60503712 318.33741939 274.45901979 200.00000000 200.00000000 200.00000000 200.00000000 200.00000000 200.00000000 200.00000000 200.00000000 200.00000000 200.00000000 200.00000000 200.00000000 200.00000000 200.00000000 200.00000000 200.00000000 200.00000000 200.00000000 200.00000000 200.00000000 200.00000000 200.00000000 200.00000000 200.00000000 200.00000000 200.00000000 200.00000000 200.00000000 200.00000000 200.00000000 200.00000000 200.00000000 200.00000000 200.00000000 200.00000000 200.00000000 200.00000000 200.00000000 200.00000000 200.00000000 200.00000000 200.00000000 200.00000000 200.00000000 200.00000000 200.00000000 200.00000000 200.00000000 200.00000000 200.00000000 200.00000000 200.00000000 200.00000000 200.00000000 200.00000000 200.00000000 200.00000000 200.00000000 200.00000000 200.00000000 200.00000000 200.00000000 200.00000000 200.00000000 200.00000000 200.00000000 200.00000000 200.00000000 200.00000000 200.00000000 200.00000000 200.00000000 200.00000000 200.00000000 200.00000000 200.00000000 200.00000000 200.00000000 200.00000000 200.00000000 200.00000000 200.00000000 200.00000000 200.00000000 200.00000000 200.00000000 200.00000000 200.00000000 200.00000000 200.00000000 200.00000000 200.00000000 200.00000000 200.00000000 200.00000000 200.00000000 200.00000000 200.00000000 200.00000000 200.00000000 200.00000000 200.00000000 200.00000000 200.00000000 200.00000000 200.00000000 200.00000000 200.00000000 200.00000000 200.00000000 200.00000000 200.00000000 200.00000000 200.00000000 200.00000000 200.00000000 200.00000000 200.00000000 200.00000000 200.00000000 200.00000000 200.00000000 200.00000000 200.00000000 200.00000000 200.00000000 200.00000000 200.00000000 200.00000000 200.00000000 200.00000000 200.00000000 200.00000000 200.00000000 200.00000000 200.00000000 200.00000000 200.00000000 200.00000000 200.00000000 200.00000000 200.00000000 200.00000000 200.00000000 200.00000000 200.00000000 200.00000000 200.00000000 200.00000000 200.00000000 200.00000000 200.00000000 200.00000000 200.00000000 200.00000000 200.00000000 200.00000000 200.00000000 200.00000000 200.00000000 200.00000000 200.00000000 200.00000000 200.00000000 200.00000000 200.00000000 200.00000000 200.00000000 200.00000000 200.00000000 200.00000000 200.00000000 200.00000000 200.00000000 200.00000000 200.00000000 200.00000000 200.00000000 200.00000000 200.00000000 200.00000000 200.00000000 200.00000000 200.00000000 200.00000000 200.00000000 200.00000000 200.00000000 200.00000000 200.00000000 200.00000000 200.00000000 200.00000000 200.00000000 200.00000000 200.00000000 200.00000000 200.00000000 200.00000000 200.00000000 200.00000000 200.00000000 200.00000000 200.00000000 200.00000000 200.00000000 200.00000000 200.00000000 200.00000000 200.00000000 200.00000000 200.00000000 200.00000000 200.00000000 200.00000000 200.00000000 200.00000000 200.00000000 200.00000000 200.00000000 200.00000000 200.00000000 200.00000000 200.00000000 200.00000000 200.00000000 200.00000000 200.00000000 200.00000000 200.00000000 200.00000000 200.00000000 200.00000000 200.00000000 200.00000000 200.00000000 200.00000000 200.00000000 200.00000000 200.00000000 200.00000000 200.00000000 200.00000000 200.00000000 200.00000000 200.00000000 200.00000000 200.00000000 200.00000000 200.00000000 200.00000000 200.00000000 200.00000000 200.00000000 200.00000000 200.00000000 200.00000000 200.00000000 200.00000000 200.00000000 200.00000000 200.00000000 200.00000000 200.00000000 200.00000000 200.00000000 200.00000000 200.00000000 200.00000000 200.00000000 200.00000000 200.00000000 200.00000000 200.00000000 200.00000000 200.00000000 200.00000000 200.00000000 200.00000000 200.00000000 200.00000000 200.00000000 200.00000000 200.00000000 200.00000000 200.00000000 200.00000000 200.00000000 200.00000000 200.00000000 200.00000000 200.00000000 200.00000000 200.00000000 200.00000000 200.00000000 200.00000000 200.00000000 200.00000000 200.00000000 200.00000000 200.00000000 200.00000000 200.00000000 200.00000000 200.00000000 200.00000000 200.00000000 200.00000000 200.00000000 200.00000000 200.00000000 200.00000000 200.00000000 200.00000000 200.00000000 200.00000000 200.00000000 200.00000000 200.00000000 200.00000000 200.00000000 200.00000000 200.00000000 200.00000000 200.00000000 200.00000000 200.00000000 200.00000000 200.00000000 200.00000000 200.00000000 200.00000000 200.00000000 200.00000000 200.00000000 200.00000000 