# vtk DataFile Version 3.0
VTK - Matlab export
ASCII
DATASET STRUCTURED_POINTS
DIMENSIONS 40 40 1
SPACING 1 1 1
ORIGIN 0 0 0
POINT_DATA 1600
SCALARS Temperature float 1
LOOKUP_TABLE default
200.00000000 200.00000000 200.00000000 200.00000000 200.00000000 200.00000000 200.00000000 200.00000000 200.00000000 200.00000000 200.00000000 200.00000000 200.00000000 200.00000000 200.00000000 200.00000000 200.00000000 200.00000000 200.00000000 200.00000000 200.00000000 200.00000000 200.00000000 200.00000000 200.00000000 200.00000000 200.00000000 200.00000000 200.00000000 200.00000000 200.00000000 200.00000000 200.00000000 200.00000000 200.00000000 200.00000000 200.00000000 200.00000000 200.00000000 200.00000000 200.00000000 200.00000000 200.00000000 200.00000000 200.00000000 200.00000000 200.00000000 200.00000000 200.00000000 200.00000000 200.00000000 200.00000000 200.00000000 200.00000000 200.00000000 200.00000000 200.00000000 200.00000000 200.00000000 200.00000000 200.00000000 200.00000000 200.00000000 200.00000000 200.00000000 200.00000000 200.00000000 200.00000000 200.00000000 200.00000000 200.00000000 200.00000000 200.00000000 200.00000000 200.00000000 200.00000000 200.00000000 200.00000000 200.00000000 200.00000000 200.00000000 200.00000000 200.00000000 200.00000000 200.00000000 200.00000000 200.00000000 200.00000000 200.00000000 200.00000000 200.00000000 200.00000000 200.00000000 200.00000000 200.00000000 200.00000000 200.00000000 200.00000000 200.00000000 200.00000000 200.00000000 200.00000000 200.00000000 200.00000000 200.00000000 200.00000000 200.00000000 200.00000000 200.00000000 200.00000000 200.00000000 200.00000000 200.00000000 200.00000000 200.00000000 200.00000000 200.00000000 200.00000000 200.00000000 200.00000000 200.00000000 200.00000000 200.00000000 200.00000000 200.00000000 200.00000000 200.00000000 200.00000000 200.00000000 200.00000000 200.00000000 200.00000000 200.00000000 200.00000000 200.00000000 200.00000000 200.00000000 200.00000000 200.00000000 200.00000000 200.00000000 200.00000000 200.00000000 200.00000000 200.00000000 200.00000000 200.00000000 200.00000000 200.00000000 200.00000000 200.00000000 200.00000000 200.00000000 200.00000000 200.00000000 200.00000000 200.00000000 200.00000000 200.00000000 200.00000000 200.00000000 200.00000000 200.00000000 200.00000000 200.00000000 200.00000000 200.00000000 200.00000000 200.00000000 200.00000000 200.00000000 200.00000000 200.00000000 200.00000000 200.00000000 200.00000000 200.00000000 200.00000000 200.00000000 200.00000000 200.00000000 200.00000000 200.00000000 200.00000000 200.00000000 200.00000000 200.00000000 200.00000000 200.00000000 200.00000000 200.00000000 200.00000000 200.00000000 200.00000000 200.00000000 200.00000000 200.00000000 200.00000000 200.00000000 200.00000000 200.00000000 200.00000000 200.00000000 200.00000000 200.00000000 200.00000000 200.00000000 200.00000000 200.00000000 200.00000000 200.00000000 200.00000000 200.00000000 200.00000000 200.00000000 200.00000000 200.00000000 200.00000000 200.00000000 200.00000000 200.00000000 200.00000000 200.00000000 200.00000000 200.00000000 200.00000000 200.00000000 200.00000000 200.00000000 200.00000000 200.00000000 200.00000000 200.00000000 200.00000000 200.00000000 200.00000000 200.00000000 200.00000000 200.00000000 200.00000000 200.00000000 200.00000000 200.00000000 200.00000000 200.00000000 200.00000000 200.00000000 200.00000000 200.00000000 200.00000000 200.00000000 200.00000000 200.00000000 200.00000000 200.00000000 200.00000000 200.00000000 200.00000000 200.00000000 200.00000000 200.00000000 200.00000000 200.00000000 200.00000000 200.00000000 200.00000000 200.00000000 200.00000000 200.00000000 200.00000000 200.00000000 200.00000000 200.00000000 200.00000000 200.00000000 200.00000000 200.00000000 200.00000000 200.00000000 200.00000000 200.00000000 200.00000000 200.00000000 200.00000000 200.00000000 200.00000000 200.00000000 200.00000000 200.00000000 200.00000000 200.00000000 200.00000000 200.00000000 200.00000000 200.00000000 200.00000000 200.00000000 200.00000000 200.00000000 200.00000000 200.00000000 200.00000000 200.00000000 200.00000000 200.00000000 200.00000000 200.00000000 200.00000000 200.00000000 200.00000000 200.00000000 200.00000000 200.00000000 200.00000000 200.00000000 200.00000000 200.00000000 200.00000000 200.00000000 200.00000000 200.00000000 200.00000000 200.00000000 200.00000000 200.00000000 200.00000000 200.00000000 200.00000000 200.00000000 200.00000000 200.00000000 200.00000000 200.00000000 200.00000000 200.00000000 200.00000000 200.00000000 300.20067762 362.70181278 387.52998288 387.52998288 362.70181278 300.20067762 200.00000000 200.00000000 200.00000000 200.00000000 200.00000000 200.00000000 200.00000000 200.00000000 200.00000000 200.00000000 200.00000000 200.00000000 200.00000000 200.00000000 200.00000000 200.00000000 200.00000000 200.00000000 200.00000000 200.00000000 200.00000000 200.00000000 200.00000000 200.00000000 200.00000000 200.00000000 200.00000000 200.00000000 200.00000000 302.87446298 379.81884769 418.22795735 435.67233308 452.36083358 496.00238189 536.37225936 555.81899446 555.81899446 536.37225936 496.00238189 452.36083358 435.67233308 418.22795735 379.81884769 302.87446298 200.00000000 200.00000000 200.00000000 200.00000000 200.00000000 200.00000000 200.00000000 200.00000000 200.00000000 200.00000000 200.00000000 200.00000000 200.00000000 200.00000000 200.00000000 200.00000000 200.00000000 200.00000000 200.00000000 200.00000000 200.00000000 200.00000000 349.04060709 423.67401208 492.44630234 549.11723218 580.31251182 594.15237107 604.55843581 621.74679490 638.40367430 646.76945403 646.76945403 638.40367430 621.74679490 604.55843581 594.15237107 580.31251182 549.11723218 492.44630234 423.67401208 349.04060709 200.00000000 200.00000000 200.00000000 200.00000000 200.00000000 200.00000000 200.00000000 200.00000000 200.00000000 200.00000000 200.00000000 200.00000000 200.00000000 200.00000000 200.00000000 200.00000000 200.00000000 200.00000000 337.87885283 425.34723329 520.54524819 579.24740189 617.18727759 643.15732542 656.63918729 662.10990935 665.62014583 670.59428074 675.34051355 677.68520313 677.68520313 675.34051355 670.59428074 665.62014583 662.10990935 656.63918729 643.15732542 617.18727759 579.24740189 520.54524819 425.34723329 337.87885283 200.00000000 200.00000000 200.00000000 200.00000000 200.00000000 200.00000000 200.00000000 200.00000000 200.00000000 200.00000000 200.00000000 200.00000000 200.00000000 200.00000000 200.00000000 366.24374917 493.47210374 573.35541163 626.32652012 654.29311270 668.48785948 676.46106354 680.17954850 681.51466601 682.27396021 683.31481253 684.28494023 684.74127742 684.74127742 684.28494023 683.31481253 682.27396021 681.51466601 680.17954850 676.46106354 668.48785948 654.29311270 626.32652012 573.35541163 493.47210374 366.24374917 200.00000000 200.00000000 200.00000000 200.00000000 200.00000000 200.00000000 200.00000000 200.00000000 200.00000000 200.00000000 200.00000000 200.00000000 288.00780934 399.20923068 521.06334517 604.54751169 648.63604181 670.08242342 679.12279359 682.77283290 684.47085666 685.16887416 685.38438973 685.49584464 685.65593300 685.80102045 685.86396518 685.86396518 685.80102045 685.65593300 685.49584464 685.38438973 685.16887416 684.47085666 682.77283290 679.12279359 670.08242342 648.63604181 604.54751169 521.06334517 399.20923068 288.00780934 200.00000000 200.00000000 200.00000000 200.00000000 200.00000000 200.00000000 200.00000000 200.00000000 200.00000000 200.00000000 399.14217802 532.83509483 616.65705539 659.15433373 676.52305421 682.84683678 684.91271374 685.56949396 685.82388995 685.91483459 685.93810444 685.94938374 685.96768399 685.98359470 685.98969250 685.98969250 685.98359470 685.96768399 685.94938374 685.93810444 685.91483459 685.82388995 685.56949396 684.91271374 682.84683678 676.52305421 659.15433373 616.65705539 532.83509483 399.14217802 200.00000000 200.00000000 200.00000000 200.00000000 200.00000000 200.00000000 200.00000000 200.00000000 200.00000000 365.26884163 520.57129782 616.52816553 661.88171599 678.93546013 684.14652916 685.53781489 685.87642857 685.95895560 685.98567904 685.99384519 685.99547643 685.99625981 685.99781640 685.99907593 685.99947437 685.99947437 685.99907593 685.99781640 685.99625981 685.99547643 685.99384519 685.98567904 685.95895560 685.87642857 685.53781489 684.14652916 678.93546013 661.88171599 616.52816553 520.57129782 365.26884163 200.00000000 200.00000000 200.00000000 200.00000000 200.00000000 200.00000000 200.00000000 331.08576064 488.31796634 602.55949086 658.67125524 678.85773400 684.47295942 685.71731896 685.95046140 685.99018129 685.99727289 685.99920868 685.99969672 685.99976453 685.99980118 685.99989839 685.99996740 685.99998333 685.99998333 685.99996740 685.99989839 685.99980118 685.99976453 685.99969672 685.99920868 685.99727289 685.99018129 685.95046140 685.71731896 684.47295942 678.85773400 658.67125524 602.55949086 488.31796634 331.08576064 200.00000000 200.00000000 200.00000000 200.00000000 200.00000000 200.00000000 398.47096176 557.27332900 643.27146127 675.34167094 683.96545975 685.69854209 685.96386860 685.99606856 685.99947460 685.99987895 685.99997262 685.99999037 685.99999164 685.99999275 685.99999704 685.99999942 685.99999972 685.99999972 685.99999942 685.99999704 685.99999275 685.99999164 685.99999037 685.99997262 685.99987895 685.99947460 685.99606856 685.96386860 685.69854209 683.96545975 675.34167094 643.27146127 557.27332900 398.47096176 200.00000000 200.00000000 200.00000000 200.00000000 200.00000000 200.00000000 434.46553933 590.07663685 659.62190316 680.71694734 685.22453145 685.91698301 685.99353910 685.99961891 685.99997616 685.99999643 685.99999950 685.99999982 685.99999982 685.99999983 685.99999996 686.00000000 686.00000000 686.00000000 686.00000000 685.99999996 685.99999983 685.99999982 685.99999982 685.99999950 685.99999643 685.99997616 685.99961891 685.99353910 685.91698301 685.22453145 680.71694734 659.62190316 590.07663685 434.46553933 200.00000000 200.00000000 200.00000000 200.00000000 200.00000000 276.36831591 468.07282260 607.02652672 666.02200455 682.39255095 685.53115761 685.95643690 685.99716092 685.99987432 685.99999623 685.99999988 686.00000000 686.00000000 686.00000000 686.00000000 686.00000000 686.00000000 686.00000000 686.00000000 686.00000000 686.00000000 686.00000000 686.00000000 686.00000000 686.00000000 685.99999988 685.99999623 685.99987432 685.99716092 685.95643690 685.53115761 682.39255095 666.02200455 607.02652672 468.07282260 276.36831591 200.00000000 200.00000000 200.00000000 200.00000000 276.36831591 468.07282260 607.02652672 666.02200455 682.39255095 685.53115761 685.95643690 685.99716092 685.99987432 685.99999623 685.99999988 686.00000000 686.00000000 686.00000000 686.00000000 686.00000000 686.00000000 686.00000000 686.00000000 686.00000000 686.00000000 686.00000000 686.00000000 686.00000000 686.00000000 685.99999988 685.99999623 685.99987432 685.99716092 685.95643690 685.53115761 682.39255095 666.02200455 607.02652672 468.07282260 276.36831591 200.00000000 200.00000000 200.00000000 200.00000000 200.00000000 434.46553933 590.07663685 659.62190316 680.71694734 685.22453145 685.91698301 685.99353910 685.99961891 685.99997616 685.99999643 685.99999950 685.99999982 685.99999982 685.99999983 685.99999996 686.00000000 686.00000000 686.00000000 686.00000000 685.99999996 685.99999983 685.99999982 685.99999982 685.99999950 685.99999643 685.99997616 685.99961891 685.99353910 685.91698301 685.22453145 680.71694734 659.62190316 590.07663685 434.46553933 200.00000000 200.00000000 200.00000000 200.00000000 200.00000000 200.00000000 398.47096176 557.27332900 643.27146127 675.34167094 683.96545975 685.69854209 685.96386860 685.99606856 685.99947460 685.99987895 685.99997262 685.99999037 685.99999164 685.99999275 685.99999704 685.99999942 685.99999972 685.99999972 685.99999942 685.99999704 685.99999275 685.99999164 685.99999037 685.99997262 685.99987895 685.99947460 685.99606856 685.96386860 685.69854209 683.96545975 675.34167094 643.27146127 557.27332900 398.47096176 200.00000000 200.00000000 200.00000000 200.00000000 200.00000000 200.00000000 331.08576064 488.31796634 602.55949086 658.67125524 678.85773400 684.47295942 685.71731896 685.95046140 685.99018129 685.99727289 685.99920868 685.99969672 685.99976453 685.99980118 685.99989839 685.99996740 685.99998333 685.99998333 685.99996740 685.99989839 685.99980118 685.99976453 685.99969672 685.99920868 685.99727289 685.99018129 685.95046140 685.71731896 684.47295942 678.85773400 658.67125524 602.55949086 488.31796634 331.08576064 200.00000000 200.00000000 200.00000000 200.00000000 200.00000000 200.00000000 200.00000000 365.26884163 520.57129782 616.52816553 661.88171599 678.93546013 684.14652916 685.53781489 685.87642857 685.95895560 685.98567904 685.99384519 685.99547643 685.99625981 685.99781640 685.99907593 685.99947437 685.99947437 685.99907593 685.99781640 685.99625981 685.99547643 685.99384519 685.98567904 685.95895560 685.87642857 685.53781489 684.14652916 678.93546013 661.88171599 616.52816553 520.57129782 365.26884163 200.00000000 200.00000000 200.00000000 200.00000000 200.00000000 200.00000000 200.00000000 200.00000000 200.00000000 399.14217802 532.83509483 616.65705539 659.15433373 676.52305421 682.84683678 684.91271374 685.56949396 685.82388995 685.91483459 685.93810444 685.94938374 685.96768399 685.98359470 685.98969250 685.98969250 685.98359470 685.96768399 685.94938374 685.93810444 685.91483459 685.82388995 685.56949396 684.91271374 682.84683678 676.52305421 659.15433373 616.65705539 532.83509483 399.14217802 200.00000000 200.00000000 200.00000000 200.00000000 200.00000000 200.00000000 200.00000000 200.00000000 200.00000000 200.00000000 288.00780934 399.20923068 521.06334517 604.54751169 648.63604181 670.08242342 679.12279359 682.77283290 684.47085666 685.16887416 685.38438973 685.49584464 685.65593300 685.80102045 685.86396518 685.86396518 685.80102045 685.65593300 685.49584464 685.38438973 685.16887416 684.47085666 682.77283290 679.12279359 670.08242342 648.63604181 604.54751169 521.06334517 399.20923068 288.00780934 200.00000000 200.00000000 200.00000000 200.00000000 200.00000000 200.00000000 200.00000000 200.00000000 200.00000000 200.00000000 200.00000000 200.00000000 366.24374917 493.47210374 573.35541163 626.32652012 654.29311270 668.48785948 676.46106354 680.17954850 681.51466601 682.27396021 683.31481253 684.28494023 684.74127742 684.74127742 684.28494023 683.31481253 682.27396021 681.51466601 680.17954850 676.46106354 668.48785948 654.29311270 626.32652012 573.35541163 493.47210374 366.24374917 200.00000000 200.00000000 200.00000000 200.00000000 200.00000000 200.00000000 200.00000000 200.00000000 200.00000000 200.00000000 200.00000000 200.00000000 200.00000000 200.00000000 200.00000000 337.87885283 425.34723329 520.54524819 579.24740189 617.18727759 643.15732542 656.63918729 662.10990935 665.62014583 670.59428074 675.34051355 677.68520313 677.68520313 675.34051355 670.59428074 665.62014583 662.10990935 656.63918729 643.15732542 617.18727759 579.24740189 520.54524819 425.34723329 337.87885283 200.00000000 200.00000000 200.00000000 200.00000000 200.00000000 200.00000000 200.00000000 200.00000000 200.00000000 200.00000000 200.00000000 200.00000000 200.00000000 200.00000000 200.00000000 200.00000000 200.00000000 200.00000000 349.04060709 423.67401208 492.44630234 549.11723218 580.31251182 594.15237107 604.55843581 621.74679490 638.40367430 646.76945403 646.76945403 638.40367430 621.74679490 604.55843581 594.15237107 580.31251182 549.11723218 492.44630234 423.67401208 349.04060709 200.00000000 200.00000000 200.00000000 200.00000000 200.00000000 200.00000000 200.00000000 200.00000000 200.00000000 200.00000000 200.00000000 200.00000000 200.00000000 200.00000000 200.00000000 200.00000000 200.00000000 200.00000000 200.00000000 200.00000000 200.00000000 200.00000000 302.87446298 379.81884769 418.22795735 435.67233308 452.36083358 496.00238189 536.37225936 555.81899446 555.81899446 536.37225936 496.00238189 452.36083358 435.67233308 418.22795735 379.81884769 302.87446298 200.00000000 200.00000000 200.00000000 200.00000000 200.00000000 200.00000000 200.00000000 200.00000000 200.00000000 200.00000000 200.00000000 200.00000000 200.00000000 200.00000000 200.00000000 200.00000000 200.00000000 200.00000000 200.00000000 200.00000000 200.00000000 200.00000000 200.00000000 200.00000000 200.00000000 200.00000000 200.00000000 200.00000000 200.00000000 300.20067762 362.70181278 387.52998288 387.52998288 362.70181278 300.20067762 200.00000000 200.00000000 200.00000000 200.00000000 200.00000000 200.00000000 200.00000000 200.00000000 200.00000000 200.00000000 200.00000000 200.00000000 200.00000000 200.00000000 200.00000000 200.00000000 200.00000000 200.00000000 200.00000000 200.00000000 200.00000000 200.00000000 200.00000000 200.00000000 200.00000000 200.00000000 200.00000000 200.00000000 200.00000000 200.00000000 200.00000000 200.00000000 200.00000000 200.00000000 200.00000000 200.00000000 200.00000000 200.00000000 200.00000000 200.00000000 200.00000000 200.00000000 200.00000000 200.00000000 200.00000000 200.00000000 200.00000000 200.00000000 200.00000000 200.00000000 200.00000000 200.00000000 200.00000000 200.00000000 200.00000000 200.00000000 200.00000000 200.00000000 200.00000000 200.00000000 200.00000000 200.00000000 200.00000000 200.00000000 200.00000000 200.00000000 200.00000000 200.00000000 200.00000000 200.00000000 200.00000000 200.00000000 200.00000000 200.00000000 200.00000000 200.00000000 200.00000000 200.00000000 200.00000000 200.00000000 200.00000000 200.00000000 200.00000000 200.00000000 200.00000000 200.00000000 200.00000000 200.00000000 200.00000000 200.00000000 200.00000000 200.00000000 200.00000000 200.00000000 200.00000000 200.00000000 200.00000000 200.00000000 200.00000000 200.00000000 200.00000000 200.00000000 200.00000000 200.00000000 200.00000000 200.00000000 200.00000000 200.00000000 200.00000000 200.00000000 200.00000000 200.00000000 200.00000000 200.00000000 200.00000000 200.00000000 200.00000000 200.00000000 200.00000000 200.00000000 200.00000000 200.00000000 200.00000000 200.00000000 200.00000000 200.00000000 200.00000000 200.00000000 200.00000000 200.00000000 200.00000000 200.00000000 200.00000000 200.00000000 200.00000000 200.00000000 200.00000000 200.00000000 200.00000000 200.00000000 200.00000000 200.00000000 200.00000000 200.00000000 200.00000000 200.00000000 200.00000000 200.00000000 200.00000000 200.00000000 200.00000000 200.00000000 200.00000000 200.00000000 200.00000000 200.00000000 200.00000000 200.00000000 200.00000000 200.00000000 200.00000000 200.00000000 200.00000000 200.00000000 200.00000000 200.00000000 200.00000000 200.00000000 200.00000000 200.00000000 200.00000000 200.00000000 200.00000000 200.00000000 200.00000000 200.00000000 200.00000000 200.00000000 200.00000000 200.00000000 200.00000000 200.00000000 200.00000000 200.00000000 200.00000000 200.00000000 200.00000000 200.00000000 200.00000000 200.00000000 200.00000000 200.00000000 200.00000000 200.00000000 200.00000000 200.00000000 200.00000000 200.00000000 200.00000000 200.00000000 200.00000000 200.00000000 200.00000000 200.00000000 200.00000000 200.00000000 200.00000000 200.00000000 200.00000000 200.00000000 200.00000000 200.00000000 200.00000000 200.00000000 200.00000000 200.00000000 200.00000000 200.00000000 200.00000000 200.00000000 200.00000000 200.00000000 200.00000000 200.00000000 200.00000000 200.00000000 200.00000000 200.00000000 200.00000000 200.00000000 200.00000000 200.00000000 200.00000000 200.00000000 200.00000000 200.00000000 200.00000000 200.00000000 200.00000000 200.00000000 200.00000000 200.00000000 200.00000000 200.00000000 200.00000000 200.00000000 200.00000000 200.00000000 200.00000000 200.00000000 200.00000000 200.00000000 200.00000000 200.00000000 200.00000000 200.00000000 200.00000000 200.00000000 200.00000000 200.00000000 200.00000000 200.00000000 200.00000000 200.00000000 200.00000000 200.00000000 200.00000000 200.00000000 200.00000000 200.00000000 200.00000000 200.00000000 200.00000000 200.00000000 200.00000000 200.00000000 200.00000000 200.00000000 200.00000000 200.00000000 200.00000000 200.00000000 200.00000000 200.00000000 200.00000000 200.00000000 200.00000000 200.00000000 200.00000000 200.00000000 200.00000000 200.00000000 200.00000000 200.00000000 200.00000000 200.00000000 200.00000000 200.00000000 200.00000000 200.00000000 200.00000000 200.00000000 200.00000000 200.00000000 200.00000000 200.00000000 200.00000000 200.00000000 200.00000000 200.00000000 200.00000000 200.00000000 200.00000000 200.00000000 200.00000000 200.00000000 200.00000000 200.00000000 200.00000000 200.00000000 200.00000000 200.00000000 200.00000000 200.00000000 200.00000000 200.00000000 200.00000000 200.00000000 200.00000000 200.00000000 200.00000000 200.00000000 200.00000000 200.00000000 200.00000000 200.00000000 200.00000000 