# vtk DataFile Version 3.0
VTK - Matlab export
ASCII
DATASET STRUCTURED_POINTS
DIMENSIONS 40 40 1
SPACING 1 1 1
ORIGIN 0 0 0
POINT_DATA 1600
SCALARS Proofstrength float 1
LOOKUP_TABLE default
140.71398941 140.71398941 140.71398941 140.71398941 140.71398941 140.71398941 140.71398941 140.71398941 140.71398941 140.71398941 140.71398941 140.71398941 140.71398941 140.71398941 140.71398941 140.71398941 140.71398941 140.71398941 140.71398941 140.71398941 140.71398941 140.71398941 140.71398941 140.71398941 140.71398941 140.71398941 140.71398941 140.71398941 140.71398941 140.71398941 140.71398941 140.71398941 140.71398941 140.71398941 140.71398941 140.71398941 140.71398941 140.71398941 140.71398941 140.71398941 140.71398941 140.71398941 140.71398941 140.71398941 140.71398941 140.71398941 140.71398941 140.71398941 140.71398941 140.71398941 140.71398941 140.71398941 140.71398941 140.71398941 140.71398941 140.71398941 140.71398941 140.71398941 140.71398941 140.71398941 140.71398941 140.71398941 140.71398941 140.71398941 140.71398941 140.71398941 140.71398941 140.71398941 140.71398941 140.71398941 140.71398941 140.71398941 140.71398941 140.71398941 140.71398941 140.71398941 140.71398941 140.71398941 140.71398941 140.71398941 140.71398941 140.71398941 140.71398941 140.71398941 140.71398941 140.71398941 140.71398941 140.71398941 140.71398941 140.71398941 140.71398941 140.71398941 140.71398941 140.71398941 140.71398941 140.71398941 140.71398941 140.71398941 140.71398941 140.71398941 140.71398941 140.71398941 140.71398941 140.71398941 140.71398941 140.71398941 140.71398941 140.71398941 140.71398941 140.71398941 140.71398941 140.71398941 140.71398941 140.71398941 140.71398941 140.71398941 140.71398941 140.71398941 140.71398941 140.71398941 140.71398941 140.71398941 140.71398941 140.71398941 140.71398941 140.71398941 140.71398941 140.71398941 140.71398941 140.71398941 140.71398941 140.71398941 140.71398941 140.71398941 140.71398941 140.71398941 140.71398941 140.71398941 140.71398941 140.71398941 140.71398941 140.71398941 140.71398941 140.71398941 140.71398941 140.71398941 140.71398941 140.71398941 140.71398941 140.71398941 140.71398941 140.71398941 140.71398941 140.71398941 140.71398941 140.71398941 140.71398941 140.71398941 140.71398941 140.71398941 140.71398941 140.71398941 140.71398941 140.71398941 140.71398941 140.71398941 140.71398941 140.71398941 140.71398941 140.71398941 140.71398941 140.71398941 140.71398941 140.71398941 140.71398941 140.71398941 140.71398941 140.71398941 140.71398941 140.71398941 140.71398941 140.71398941 140.71398941 140.71398941 140.71398941 140.71398941 140.71398941 140.71398941 140.71398941 140.71398941 140.71398941 140.71398941 140.71398941 140.71398941 140.71398941 140.71398941 140.71398941 140.71398941 140.71398941 140.71398941 140.71398941 140.71398941 140.71398941 140.71398941 140.71398941 140.71398941 140.71398941 140.71398941 140.71398941 140.71398941 140.71398941 140.71398941 140.71398941 140.71398941 140.71398941 140.71398941 140.71398941 140.71398941 140.71398941 140.71398941 140.71398941 140.71398941 140.71398941 140.71398941 140.71398941 140.71398941 140.71398941 140.71398941 140.71398941 140.71398941 140.71398941 140.71398941 140.71398941 140.71398941 140.71398941 140.71398941 140.71398941 140.71398941 140.71398941 140.71398941 140.71398941 140.71398941 140.71398941 140.71398941 140.71398941 140.71398941 140.71398941 140.71398941 140.71398941 140.71398941 140.71398941 140.71398941 140.71398941 140.71398941 140.71398941 140.71398941 140.71398941 140.71398941 140.71398941 140.71398941 140.71398941 140.71398941 140.71398941 140.71398941 140.71398941 140.71398941 140.71398941 140.71398941 140.71398941 140.71398941 140.71398941 140.71398941 140.71398941 140.71398941 140.71398941 140.71398941 140.71398941 140.71398941 140.71398941 140.71398941 140.71398941 140.71398941 140.71398941 140.71398941 140.71398941 140.71398941 140.71398941 140.71398941 140.71398941 140.71398941 140.71398941 140.71398941 140.71398941 140.71398941 140.71398941 140.71398941 140.71398941 140.71398941 140.71398941 140.71398941 140.71398941 140.71398941 140.71398941 140.71398941 140.71398941 140.71398941 140.71398941 140.71398941 140.71398941 140.71398941 140.71398941 140.71398941 140.71398941 140.71398941 140.71398941 140.71398941 140.71398941 140.71398941 140.71398941 140.71398941 140.71398941 140.71398941 140.71398941 140.71398941 140.71398941 140.71398941 140.71398941 140.71398941 140.71398941 140.71398941 140.71398941 140.71398941 140.71398941 140.71398941 140.71398941 140.71398941 140.71398941 140.94266682 141.07741283 141.09137016 141.09137016 141.07741283 140.94266682 140.71398941 140.71398941 140.71398941 140.71398941 140.71398941 140.71398941 140.71398941 140.71398941 140.71398941 140.71398941 140.71398941 140.71398941 140.71398941 140.71398941 140.71398941 140.71398941 140.71398941 140.71398941 140.71398941 140.71398941 140.71398941 140.71398941 140.71398941 140.71398941 140.71398941 140.71398941 140.71398941 140.71398941 140.71398941 140.93728785 141.06109788 141.04699473 141.00967195 140.99136809 141.03697037 141.03540957 140.99935043 140.99935043 141.03540957 141.03697037 140.99136809 141.00967195 141.04699473 141.06109788 140.93728785 140.71398941 140.71398941 140.71398941 140.71398941 140.71398941 140.71398941 140.71398941 140.71398941 140.71398941 140.71398941 140.71398941 140.71398941 140.71398941 140.71398941 140.71398941 140.71398941 140.71398941 140.71398941 140.71398941 140.71398941 140.71398941 140.71398941 140.99334932 141.03323517 141.04432064 141.00752570 140.94016856 140.90223877 140.87935148 140.86023346 140.82523091 140.79988461 140.79988461 140.82523091 140.86023346 140.87935148 140.90223877 140.94016856 141.00752570 141.04432064 141.03323517 140.99334932 140.71398941 140.71398941 140.71398941 140.71398941 140.71398941 140.71398941 140.71398941 140.71398941 140.71398941 140.71398941 140.71398941 140.71398941 140.71398941 140.71398941 140.71398941 140.71398941 140.71398941 140.71398941 140.99618100 141.02818743 141.02772527 140.94148570 140.87080040 140.81280296 140.77645199 140.76434315 140.75702362 140.74612270 140.73305213 140.72683304 140.72683304 140.73305213 140.74612270 140.75702362 140.76434315 140.77645199 140.81280296 140.87080040 140.94148570 141.02772527 141.02818743 140.99618100 140.71398941 140.71398941 140.71398941 140.71398941 140.71398941 140.71398941 140.71398941 140.71398941 140.71398941 140.71398941 140.71398941 140.71398941 140.71398941 140.71398941 140.71398941 140.97980826 141.06108951 140.95591697 140.85190476 140.78238439 140.74938235 140.73057885 140.72277879 140.72119191 140.72012853 140.71786580 140.71568055 140.71498450 140.71498450 140.71568055 140.71786580 140.72012853 140.72119191 140.72277879 140.73057885 140.74938235 140.78238439 140.85190476 140.95591697 141.06108951 140.97980826 140.71398941 140.71398941 140.71398941 140.71398941 140.71398941 140.71398941 140.71398941 140.71398941 140.71398941 140.71398941 140.71398941 140.71398941 140.94687099 141.04189787 141.02422319 140.90643867 140.79740050 140.74411393 140.72448400 140.71825117 140.71543589 140.71465487 140.71457864 140.71449780 140.71424326 140.71405678 140.71402594 140.71402594 140.71405678 140.71424326 140.71449780 140.71457864 140.71465487 140.71543589 140.71825117 140.72448400 140.74411393 140.79740050 140.90643867 141.02422319 141.04189787 140.94687099 140.71398941 140.71398941 140.71398941 140.71398941 140.71398941 140.71398941 140.71398941 140.71398941 140.71398941 140.71398941 141.04192566 141.02032241 140.87691165 140.77154185 140.72914935 140.71743191 140.71483790 140.71426043 140.71404648 140.71401570 140.71401570 140.71401277 140.71399671 140.71398990 140.71398990 140.71398990 140.71398990 140.71399671 140.71401277 140.71401570 140.71401570 140.71404648 140.71426043 140.71483790 140.71743191 140.72914935 140.77154185 140.87691165 141.02032241 141.04192566 140.71398941 140.71398941 140.71398941 140.71398941 140.71398941 140.71398941 140.71398941 140.71398941 140.71398941 140.98167631 141.02475577 140.87696161 140.76456564 140.72406404 140.71545934 140.71418140 140.71402302 140.71399671 140.71398990 140.71398990 140.71398990 140.71398990 140.71398941 140.71398941 140.71398941 140.71398941 140.71398941 140.71398941 140.71398990 140.71398990 140.71398990 140.71398990 140.71399671 140.71402302 140.71418140 140.71545934 140.72406404 140.76456564 140.87696161 141.02475577 140.98167631 140.71398941 140.71398941 140.71398941 140.71398941 140.71398941 140.71398941 140.71398941 141.01225212 141.07334346 140.90998573 140.77200968 140.72408938 140.71501094 140.71405423 140.71399330 140.71398990 140.71398941 140.71398941 140.71398941 140.71398941 140.71398941 140.71398941 140.71398941 140.71398941 140.71398941 140.71398941 140.71398941 140.71398941 140.71398941 140.71398941 140.71398941 140.71398941 140.71398990 140.71399330 140.71405423 140.71501094 140.72408938 140.77200968 140.90998573 141.07334346 141.01225212 140.71398941 140.71398941 140.71398941 140.71398941 140.71398941 140.71398941 141.06449830 140.99317589 140.80931956 140.73086853 140.71557478 140.71405716 140.71399038 140.71398941 140.71398941 140.71398941 140.71398941 140.71398941 140.71398941 140.71398941 140.71398941 140.71398941 140.71398941 140.71398941 140.71398941 140.71398941 140.71398941 140.71398941 140.71398941 140.71398941 140.71398941 140.71398941 140.71398941 140.71399038 140.71405716 140.71557478 140.73086853 140.80931956 140.99317589 141.06449830 140.71398941 140.71398941 140.71398941 140.71398941 140.71398941 140.71398941 141.03677227 140.91382424 140.76633541 140.72115466 140.71453601 140.71401277 140.71398990 140.71398941 140.71398941 140.71398941 140.71398941 140.71398941 140.71398941 140.71398941 140.71398941 140.71398941 140.71398941 140.71398941 140.71398941 140.71398941 140.71398941 140.71398941 140.71398941 140.71398941 140.71398941 140.71398941 140.71398941 140.71398990 140.71401277 140.71453601 140.72115466 140.76633541 140.91382424 141.03677227 140.71398941 140.71398941 140.71398941 140.71398941 140.71398941 140.94745729 141.09690395 140.89562760 140.75377775 140.71860057 140.71427122 140.71399671 140.71398941 140.71398941 140.71398941 140.71398941 140.71398941 140.71398941 140.71398941 140.71398941 140.71398941 140.71398941 140.71398941 140.71398941 140.71398941 140.71398941 140.71398941 140.71398941 140.71398941 140.71398941 140.71398941 140.71398941 140.71398941 140.71398941 140.71399671 140.71427122 140.71860057 140.75377775 140.89562760 141.09690395 140.94745729 140.71398941 140.71398941 140.71398941 140.71398941 140.94745729 141.09690395 140.89562760 140.75377775 140.71860057 140.71427122 140.71399671 140.71398941 140.71398941 140.71398941 140.71398941 140.71398941 140.71398941 140.71398941 140.71398941 140.71398941 140.71398941 140.71398941 140.71398941 140.71398941 140.71398941 140.71398941 140.71398941 140.71398941 140.71398941 140.71398941 140.71398941 140.71398941 140.71398941 140.71399671 140.71427122 140.71860057 140.75377775 140.89562760 141.09690395 140.94745729 140.71398941 140.71398941 140.71398941 140.71398941 140.71398941 141.03677227 140.91382424 140.76633541 140.72115466 140.71453601 140.71401277 140.71398990 140.71398941 140.71398941 140.71398941 140.71398941 140.71398941 140.71398941 140.71398941 140.71398941 140.71398941 140.71398941 140.71398941 140.71398941 140.71398941 140.71398941 140.71398941 140.71398941 140.71398941 140.71398941 140.71398941 140.71398941 140.71398990 140.71401277 140.71453601 140.72115466 140.76633541 140.91382424 141.03677227 140.71398941 140.71398941 140.71398941 140.71398941 140.71398941 140.71398941 141.06449830 140.99317589 140.80931956 140.73086853 140.71557478 140.71405716 140.71399038 140.71398941 140.71398941 140.71398941 140.71398941 140.71398941 140.71398941 140.71398941 140.71398941 140.71398941 140.71398941 140.71398941 140.71398941 140.71398941 140.71398941 140.71398941 140.71398941 140.71398941 140.71398941 140.71398941 140.71398941 140.71399038 140.71405716 140.71557478 140.73086853 140.80931956 140.99317589 141.06449830 140.71398941 140.71398941 140.71398941 140.71398941 140.71398941 140.71398941 141.01225212 141.07334346 140.90998573 140.77200968 140.72408938 140.71501094 140.71405423 140.71399330 140.71398990 140.71398941 140.71398941 140.71398941 140.71398941 140.71398941 140.71398941 140.71398941 140.71398941 140.71398941 140.71398941 140.71398941 140.71398941 140.71398941 140.71398941 140.71398941 140.71398941 140.71398990 140.71399330 140.71405423 140.71501094 140.72408938 140.77200968 140.90998573 141.07334346 141.01225212 140.71398941 140.71398941 140.71398941 140.71398941 140.71398941 140.71398941 140.71398941 140.98167631 141.02475577 140.87696161 140.76456564 140.72406404 140.71545934 140.71418140 140.71402302 140.71399671 140.71398990 140.71398990 140.71398990 140.71398990 140.71398941 140.71398941 140.71398941 140.71398941 140.71398941 140.71398941 140.71398990 140.71398990 140.71398990 140.71398990 140.71399671 140.71402302 140.71418140 140.71545934 140.72406404 140.76456564 140.87696161 141.02475577 140.98167631 140.71398941 140.71398941 140.71398941 140.71398941 140.71398941 140.71398941 140.71398941 140.71398941 140.71398941 141.04192566 141.02032241 140.87691165 140.77154185 140.72914935 140.71743191 140.71483790 140.71426043 140.71404648 140.71401570 140.71401570 140.71401277 140.71399671 140.71398990 140.71398990 140.71398990 140.71398990 140.71399671 140.71401277 140.71401570 140.71401570 140.71404648 140.71426043 140.71483790 140.71743191 140.72914935 140.77154185 140.87691165 141.02032241 141.04192566 140.71398941 140.71398941 140.71398941 140.71398941 140.71398941 140.71398941 140.71398941 140.71398941 140.71398941 140.71398941 140.94687099 141.04189787 141.02422319 140.90643867 140.79740050 140.74411393 140.72448400 140.71825117 140.71543589 140.71465487 140.71457864 140.71449780 140.71424326 140.71405678 140.71402594 140.71402594 140.71405678 140.71424326 140.71449780 140.71457864 140.71465487 140.71543589 140.71825117 140.72448400 140.74411393 140.79740050 140.90643867 141.02422319 141.04189787 140.94687099 140.71398941 140.71398941 140.71398941 140.71398941 140.71398941 140.71398941 140.71398941 140.71398941 140.71398941 140.71398941 140.71398941 140.71398941 140.97980826 141.06108951 140.95591697 140.85190476 140.78238439 140.74938235 140.73057885 140.72277879 140.72119191 140.72012853 140.71786580 140.71568055 140.71498450 140.71498450 140.71568055 140.71786580 140.72012853 140.72119191 140.72277879 140.73057885 140.74938235 140.78238439 140.85190476 140.95591697 141.06108951 140.97980826 140.71398941 140.71398941 140.71398941 140.71398941 140.71398941 140.71398941 140.71398941 140.71398941 140.71398941 140.71398941 140.71398941 140.71398941 140.71398941 140.71398941 140.71398941 140.99618100 141.02818743 141.02772527 140.94148570 140.87080040 140.81280296 140.77645199 140.76434315 140.75702362 140.74612270 140.73305213 140.72683304 140.72683304 140.73305213 140.74612270 140.75702362 140.76434315 140.77645199 140.81280296 140.87080040 140.94148570 141.02772527 141.02818743 140.99618100 140.71398941 140.71398941 140.71398941 140.71398941 140.71398941 140.71398941 140.71398941 140.71398941 140.71398941 140.71398941 140.71398941 140.71398941 140.71398941 140.71398941 140.71398941 140.71398941 140.71398941 140.71398941 140.99334932 141.03323517 141.04432064 141.00752570 140.94016856 140.90223877 140.87935148 140.86023346 140.82523091 140.79988461 140.79988461 140.82523091 140.86023346 140.87935148 140.90223877 140.94016856 141.00752570 141.04432064 141.03323517 140.99334932 140.71398941 140.71398941 140.71398941 140.71398941 140.71398941 140.71398941 140.71398941 140.71398941 140.71398941 140.71398941 140.71398941 140.71398941 140.71398941 140.71398941 140.71398941 140.71398941 140.71398941 140.71398941 140.71398941 140.71398941 140.71398941 140.71398941 140.93728785 141.06109788 141.04699473 141.00967195 140.99136809 141.03697037 141.03540957 140.99935043 140.99935043 141.03540957 141.03697037 140.99136809 141.00967195 141.04699473 141.06109788 140.93728785 140.71398941 140.71398941 140.71398941 140.71398941 140.71398941 140.71398941 140.71398941 140.71398941 140.71398941 140.71398941 140.71398941 140.71398941 140.71398941 140.71398941 140.71398941 140.71398941 140.71398941 140.71398941 140.71398941 140.71398941 140.71398941 140.71398941 140.71398941 140.71398941 140.71398941 140.71398941 140.71398941 140.71398941 140.71398941 140.94266682 141.07741283 141.09137016 141.09137016 141.07741283 140.94266682 140.71398941 140.71398941 140.71398941 140.71398941 140.71398941 140.71398941 140.71398941 140.71398941 140.71398941 140.71398941 140.71398941 140.71398941 140.71398941 140.71398941 140.71398941 140.71398941 140.71398941 140.71398941 140.71398941 140.71398941 140.71398941 140.71398941 140.71398941 140.71398941 140.71398941 140.71398941 140.71398941 140.71398941 140.71398941 140.71398941 140.71398941 140.71398941 140.71398941 140.71398941 140.71398941 140.71398941 140.71398941 140.71398941 140.71398941 140.71398941 140.71398941 140.71398941 140.71398941 140.71398941 140.71398941 140.71398941 140.71398941 140.71398941 140.71398941 140.71398941 140.71398941 140.71398941 140.71398941 140.71398941 140.71398941 140.71398941 140.71398941 140.71398941 140.71398941 140.71398941 140.71398941 140.71398941 140.71398941 140.71398941 140.71398941 140.71398941 140.71398941 140.71398941 140.71398941 140.71398941 140.71398941 140.71398941 140.71398941 140.71398941 140.71398941 140.71398941 140.71398941 140.71398941 140.71398941 140.71398941 140.71398941 140.71398941 140.71398941 140.71398941 140.71398941 140.71398941 140.71398941 140.71398941 140.71398941 140.71398941 140.71398941 140.71398941 140.71398941 140.71398941 140.71398941 140.71398941 140.71398941 140.71398941 140.71398941 140.71398941 140.71398941 140.71398941 140.71398941 140.71398941 140.71398941 140.71398941 140.71398941 140.71398941 140.71398941 140.71398941 140.71398941 140.71398941 140.71398941 140.71398941 140.71398941 140.71398941 140.71398941 140.71398941 140.71398941 140.71398941 140.71398941 140.71398941 140.71398941 140.71398941 140.71398941 140.71398941 140.71398941 140.71398941 140.71398941 140.71398941 140.71398941 140.71398941 140.71398941 140.71398941 140.71398941 140.71398941 140.71398941 140.71398941 140.71398941 140.71398941 140.71398941 140.71398941 140.71398941 140.71398941 140.71398941 140.71398941 140.71398941 140.71398941 140.71398941 140.71398941 140.71398941 140.71398941 140.71398941 140.71398941 140.71398941 140.71398941 140.71398941 140.71398941 140.71398941 140.71398941 140.71398941 140.71398941 140.71398941 140.71398941 140.71398941 140.71398941 140.71398941 140.71398941 140.71398941 140.71398941 140.71398941 140.71398941 140.71398941 140.71398941 140.71398941 140.71398941 140.71398941 140.71398941 140.71398941 140.71398941 140.71398941 140.71398941 140.71398941 140.71398941 140.71398941 140.71398941 140.71398941 140.71398941 140.71398941 140.71398941 140.71398941 140.71398941 140.71398941 140.71398941 140.71398941 140.71398941 140.71398941 140.71398941 140.71398941 140.71398941 140.71398941 140.71398941 140.71398941 140.71398941 140.71398941 140.71398941 140.71398941 140.71398941 140.71398941 140.71398941 140.71398941 140.71398941 140.71398941 140.71398941 140.71398941 140.71398941 140.71398941 140.71398941 140.71398941 140.71398941 140.71398941 140.71398941 140.71398941 140.71398941 140.71398941 140.71398941 140.71398941 140.71398941 140.71398941 140.71398941 140.71398941 140.71398941 140.71398941 140.71398941 140.71398941 140.71398941 140.71398941 140.71398941 140.71398941 140.71398941 140.71398941 140.71398941 140.71398941 140.71398941 140.71398941 140.71398941 140.71398941 140.71398941 140.71398941 140.71398941 140.71398941 140.71398941 140.71398941 140.71398941 140.71398941 140.71398941 140.71398941 140.71398941 140.71398941 140.71398941 140.71398941 140.71398941 140.71398941 140.71398941 140.71398941 140.71398941 140.71398941 140.71398941 140.71398941 140.71398941 140.71398941 140.71398941 140.71398941 140.71398941 140.71398941 140.71398941 140.71398941 140.71398941 140.71398941 140.71398941 140.71398941 140.71398941 140.71398941 140.71398941 140.71398941 140.71398941 140.71398941 140.71398941 140.71398941 140.71398941 140.71398941 140.71398941 140.71398941 140.71398941 140.71398941 140.71398941 140.71398941 140.71398941 140.71398941 140.71398941 140.71398941 140.71398941 140.71398941 140.71398941 140.71398941 140.71398941 140.71398941 140.71398941 140.71398941 140.71398941 140.71398941 140.71398941 140.71398941 140.71398941 140.71398941 140.71398941 140.71398941 140.71398941 140.71398941 140.71398941 140.71398941 140.71398941 140.71398941 140.71398941 140.71398941 140.71398941 140.71398941 140.71398941 140.71398941 140.71398941 140.71398941 140.71398941 140.71398941 140.71398941 140.71398941 140.71398941 140.71398941 