# vtk DataFile Version 3.0
VTK - Matlab export
ASCII
DATASET STRUCTURED_POINTS
DIMENSIONS 40 40 1
SPACING 1 1 1
ORIGIN 0 0 0
POINT_DATA 1600
SCALARS lambda-2 float 1
LOOKUP_TABLE default
8.35311101 8.35311101 8.35311101 8.35311101 8.35311101 8.35311101 8.35311101 8.35311101 8.35311101 8.35311101 8.35311101 8.35311101 8.35311101 8.35311101 8.35311101 8.35311101 8.35311101 8.35311101 8.35311101 8.35311101 8.35311101 8.35311101 8.35311101 8.35311101 8.35311101 8.35311101 8.35311101 8.35311101 8.35311101 8.35311101 8.35311101 8.35311101 8.35311101 8.35311101 8.35311101 8.35311101 8.35311101 8.35311101 8.35311101 8.35311101 8.35311101 8.35311101 8.35311101 8.35311101 8.35311101 8.35311101 8.35311101 8.35311101 8.35311101 8.35311101 8.35311101 8.35311101 8.35311101 8.35311101 8.35311101 8.35311101 8.35311101 8.35311101 8.35311101 8.35311101 8.35311101 8.35311101 8.35311101 8.35311101 8.35311101 8.35311101 8.35311101 8.35311101 8.35311101 8.35311101 8.35311101 8.35311101 8.35311101 8.35311101 8.35311101 8.35311101 8.35311101 8.35311101 8.35311101 8.35311101 8.35311101 8.35311101 8.35311101 8.35311101 8.35311101 8.35311101 8.35311101 8.35311101 8.35311101 8.35311101 8.35311101 8.35311101 8.35311101 8.35311101 8.35311101 8.35311101 8.35311101 8.35311101 8.35311101 8.35311101 8.35311101 8.35311101 8.35311101 8.35311101 8.35311101 8.35311101 8.35311101 8.35311101 8.35311101 8.35311101 8.35311101 8.35311101 8.35311101 8.35311101 8.35311101 8.35311101 8.35311101 8.35311101 8.35311101 8.35311101 8.35311101 8.35311101 8.35311101 8.35311101 8.35311101 8.35311101 8.35311101 8.35311101 8.35311101 8.35311101 8.35311101 8.35311101 8.35311101 8.35311101 8.35311101 8.35311101 8.35311101 8.35311101 8.35311101 8.35311101 8.35311101 8.35311101 8.35311101 8.35311101 8.35311101 8.35311101 8.35311101 8.35311101 8.35311101 8.35311101 8.35311101 8.35311101 8.35311101 8.35311101 8.35311101 8.35311101 8.35311101 8.35311101 8.35311101 8.35311101 8.35311101 8.35311101 8.35311101 8.35311101 8.35311101 8.35311101 8.35311101 8.35311101 8.35311101 8.35311101 8.35311101 8.35311101 8.35311101 8.35311101 8.35311101 8.35311101 8.35311101 8.35311101 8.35311101 8.35311101 8.35311101 8.35311101 8.35311101 8.35311101 8.35311101 8.35311101 8.35311101 8.35311101 8.35311101 8.35311101 8.35311101 8.35311101 8.35311101 8.35311101 8.35311101 8.35311101 8.35311101 8.35311101 8.35311101 8.35311101 8.35311101 8.35311101 8.35311101 8.35311101 8.35311101 8.35311101 8.35311101 8.35311101 8.35311101 8.35311101 8.35311101 8.35311101 8.35311101 8.35311101 8.35311101 8.35311101 8.35311101 8.35311101 8.35311101 8.35311101 8.35311101 8.35311101 8.35311101 8.35311101 8.35311101 8.35311101 8.35311101 8.35311101 8.35311101 8.35311101 8.35311101 8.35311101 8.35311101 8.35311101 8.35311101 8.35311101 8.35311101 8.35311101 8.35311101 8.35311101 8.35311101 8.35311101 8.35311101 8.35311101 8.35311101 8.35311101 8.35311101 8.35311101 8.35311101 8.35311101 8.35311101 8.35311101 8.35311101 8.35311101 8.35311101 8.35311101 8.35311101 8.35311101 8.35311101 8.35311101 8.35311101 8.35311101 8.35311101 8.35311101 8.35311101 8.35311101 8.35311101 8.35311101 8.35311101 8.35311101 8.35311101 8.35311101 8.35311101 8.35311101 8.35311101 8.35311101 8.35311101 8.35311101 8.35311101 8.35311101 8.35311101 8.35311101 8.35311101 8.35311101 8.35311101 8.35311101 8.35311101 8.35311101 8.35311101 8.35311101 8.35311101 8.35311101 8.35311101 8.35311101 8.35311101 8.35311101 8.35311101 8.35311101 8.35311101 8.35311101 8.35311101 8.35311101 8.35311101 8.35311101 8.35311101 8.35311101 8.35311101 8.35311101 8.35311101 8.35311101 8.35311101 8.35311101 8.35311101 8.35311101 8.35311101 8.35311101 8.35311101 8.35311101 8.35311101 8.35311101 8.35311101 8.35311101 8.35311101 8.35311101 8.35311101 8.35311101 8.35311101 8.35311101 8.35311101 8.35311101 8.35311101 8.35311101 8.35311101 8.35311101 8.35311101 8.35311101 8.35311101 8.35066888 8.34934426 8.34885754 8.34885754 8.34934426 8.35066888 8.35311101 8.35311101 8.35311101 8.35311101 8.35311101 8.35311101 8.35311101 8.35311101 8.35311101 8.35311101 8.35311101 8.35311101 8.35311101 8.35311101 8.35311101 8.35311101 8.35311101 8.35311101 8.35311101 8.35311101 8.35311101 8.35311101 8.35311101 8.35311101 8.35311101 8.35311101 8.35311101 8.35311101 8.35311101 8.35053080 8.34860546 8.34745348 8.34669991 8.34601976 8.34488000 8.34394961 8.34350050 8.34350050 8.34394961 8.34488000 8.34601976 8.34669991 8.34745348 8.34860546 8.35053080 8.35311101 8.35311101 8.35311101 8.35311101 8.35311101 8.35311101 8.35311101 8.35311101 8.35311101 8.35311101 8.35311101 8.35311101 8.35311101 8.35311101 8.35311101 8.35311101 8.35311101 8.35311101 8.35311101 8.35311101 8.35311101 8.35311101 8.34926798 8.34710985 8.34494928 8.34300183 8.34155101 8.34050326 8.33966808 8.33887088 8.33823951 8.33790919 8.33790919 8.33823951 8.33887088 8.33966808 8.34050326 8.34155101 8.34300183 8.34494928 8.34710985 8.34926798 8.35311101 8.35311101 8.35311101 8.35311101 8.35311101 8.35311101 8.35311101 8.35311101 8.35311101 8.35311101 8.35311101 8.35311101 8.35311101 8.35311101 8.35311101 8.35311101 8.35311101 8.35311101 8.34951253 8.34689436 8.34380025 8.34127032 8.33912558 8.33733583 8.33596833 8.33497127 8.33423064 8.33365071 8.33323321 8.33301619 8.33301619 8.33323321 8.33365071 8.33423064 8.33497127 8.33596833 8.33733583 8.33912558 8.34127032 8.34380025 8.34689436 8.34951253 8.35311101 8.35311101 8.35311101 8.35311101 8.35311101 8.35311101 8.35311101 8.35311101 8.35311101 8.35311101 8.35311101 8.35311101 8.35311101 8.35311101 8.35311101 8.34853613 8.34460285 8.34125295 8.33823627 8.33576890 8.33383056 8.33236069 8.33131216 8.33060271 8.33012985 8.32980877 8.32960031 8.32949649 8.32949649 8.32960031 8.32980877 8.33012985 8.33060271 8.33131216 8.33236069 8.33383056 8.33576890 8.33823627 8.34125295 8.34460285 8.34853613 8.35311101 8.35311101 8.35311101 8.35311101 8.35311101 8.35311101 8.35311101 8.35311101 8.35311101 8.35311101 8.35311101 8.35311101 8.35087191 8.34760997 8.34337319 8.33937828 8.33594499 8.33313676 8.33100995 8.32951674 8.32855356 8.32800355 8.32774329 8.32765613 8.32765026 8.32766874 8.32768348 8.32768348 8.32766874 8.32765026 8.32765613 8.32774329 8.32800355 8.32855356 8.32951674 8.33100995 8.33313676 8.33594499 8.33937828 8.34337319 8.34760997 8.35087191 8.35311101 8.35311101 8.35311101 8.35311101 8.35311101 8.35311101 8.35311101 8.35311101 8.35311101 8.35311101 8.34767562 8.34295352 8.33844725 8.33446930 8.33124612 8.32885990 8.32729297 8.32643562 8.32612592 8.32619050 8.32646817 8.32682450 8.32716022 8.32741185 8.32754492 8.32754492 8.32741185 8.32716022 8.32682450 8.32646817 8.32619050 8.32612592 8.32643562 8.32729297 8.32885990 8.33124612 8.33446930 8.33844725 8.34295352 8.34767562 8.35311101 8.35311101 8.35311101 8.35311101 8.35311101 8.35311101 8.35311101 8.35311101 8.35311101 8.34878315 8.34365007 8.33860867 8.33402415 8.33022061 8.32739553 8.32559255 8.32472370 8.32460720 8.32501802 8.32573361 8.32656289 8.32735930 8.32802215 8.32849009 8.32873072 8.32873072 8.32849009 8.32802215 8.32735930 8.32656289 8.32573361 8.32501802 8.32460720 8.32472370 8.32559255 8.32739553 8.33022061 8.33402415 8.33860867 8.34365007 8.34878315 8.35311101 8.35311101 8.35311101 8.35311101 8.35311101 8.35311101 8.35311101 8.35002259 8.34535259 8.34004469 8.33486443 8.33033749 8.32682179 8.32449234 8.32333985 8.32320434 8.32383202 8.32493872 8.32626162 8.32758941 8.32877153 8.32971272 8.33036007 8.33068841 8.33068841 8.33036007 8.32971272 8.32877153 8.32758941 8.32626162 8.32493872 8.32383202 8.32320434 8.32333985 8.32449234 8.32682179 8.33033749 8.33486443 8.34004469 8.34535259 8.35002259 8.35311101 8.35311101 8.35311101 8.35311101 8.35311101 8.35311101 8.34827106 8.34285629 8.33722367 8.33194539 8.32753288 8.32433665 8.32249956 8.32195732 8.32248338 8.32376080 8.32545667 8.32727863 8.32900423 8.33048533 8.33163639 8.33241587 8.33280778 8.33280778 8.33241587 8.33163639 8.33048533 8.32900423 8.32727863 8.32545667 8.32376080 8.32248338 8.32195732 8.32249956 8.32433665 8.32753288 8.33194539 8.33722367 8.34285629 8.34827106 8.35311101 8.35311101 8.35311101 8.35311101 8.35311101 8.35311101 8.34714646 8.34118478 8.33529820 8.32996322 8.32566564 8.32273851 8.32129377 8.32122180 8.32224466 8.32399867 8.32611675 8.32828793 8.33028508 8.33196516 8.33325251 8.33411596 8.33454766 8.33454766 8.33411596 8.33325251 8.33196516 8.33028508 8.32828793 8.32611675 8.32399867 8.32224466 8.32122180 8.32129377 8.32273851 8.32566564 8.32996322 8.33529820 8.34118478 8.34714646 8.35311101 8.35311101 8.35311101 8.35311101 8.35311101 8.35133488 8.34623306 8.34027281 8.33430998 8.32896224 8.32473725 8.32196343 8.32073556 8.32091873 8.32220706 8.32421209 8.32654929 8.32889886 8.33103240 8.33281067 8.33416406 8.33506755 8.33551801 8.33551801 8.33506755 8.33416406 8.33281067 8.33103240 8.32889886 8.32654929 8.32421209 8.32220706 8.32091873 8.32073556 8.32196343 8.32473725 8.32896224 8.33430998 8.34027281 8.34623306 8.35133488 8.35311101 8.35311101 8.35311101 8.35311101 8.35133488 8.34623306 8.34027281 8.33430998 8.32896224 8.32473725 8.32196343 8.32073556 8.32091873 8.32220706 8.32421209 8.32654929 8.32889886 8.33103240 8.33281067 8.33416406 8.33506755 8.33551801 8.33551801 8.33506755 8.33416406 8.33281067 8.33103240 8.32889886 8.32654929 8.32421209 8.32220706 8.32091873 8.32073556 8.32196343 8.32473725 8.32896224 8.33430998 8.34027281 8.34623306 8.35133488 8.35311101 8.35311101 8.35311101 8.35311101 8.35311101 8.34714646 8.34118478 8.33529820 8.32996322 8.32566564 8.32273851 8.32129377 8.32122180 8.32224466 8.32399867 8.32611675 8.32828793 8.33028508 8.33196516 8.33325251 8.33411596 8.33454766 8.33454766 8.33411596 8.33325251 8.33196516 8.33028508 8.32828793 8.32611675 8.32399867 8.32224466 8.32122180 8.32129377 8.32273851 8.32566564 8.32996322 8.33529820 8.34118478 8.34714646 8.35311101 8.35311101 8.35311101 8.35311101 8.35311101 8.35311101 8.34827106 8.34285629 8.33722367 8.33194539 8.32753288 8.32433665 8.32249956 8.32195732 8.32248338 8.32376080 8.32545667 8.32727863 8.32900423 8.33048533 8.33163639 8.33241587 8.33280778 8.33280778 8.33241587 8.33163639 8.33048533 8.32900423 8.32727863 8.32545667 8.32376080 8.32248338 8.32195732 8.32249956 8.32433665 8.32753288 8.33194539 8.33722367 8.34285629 8.34827106 8.35311101 8.35311101 8.35311101 8.35311101 8.35311101 8.35311101 8.35002259 8.34535259 8.34004469 8.33486443 8.33033749 8.32682179 8.32449234 8.32333985 8.32320434 8.32383202 8.32493872 8.32626162 8.32758941 8.32877153 8.32971272 8.33036007 8.33068841 8.33068841 8.33036007 8.32971272 8.32877153 8.32758941 8.32626162 8.32493872 8.32383202 8.32320434 8.32333985 8.32449234 8.32682179 8.33033749 8.33486443 8.34004469 8.34535259 8.35002259 8.35311101 8.35311101 8.35311101 8.35311101 8.35311101 8.35311101 8.35311101 8.34878315 8.34365007 8.33860867 8.33402415 8.33022061 8.32739553 8.32559255 8.32472370 8.32460720 8.32501802 8.32573361 8.32656289 8.32735930 8.32802215 8.32849009 8.32873072 8.32873072 8.32849009 8.32802215 8.32735930 8.32656289 8.32573361 8.32501802 8.32460720 8.32472370 8.32559255 8.32739553 8.33022061 8.33402415 8.33860867 8.34365007 8.34878315 8.35311101 8.35311101 8.35311101 8.35311101 8.35311101 8.35311101 8.35311101 8.35311101 8.35311101 8.34767562 8.34295352 8.33844725 8.33446930 8.33124612 8.32885990 8.32729297 8.32643562 8.32612592 8.32619050 8.32646817 8.32682450 8.32716022 8.32741185 8.32754492 8.32754492 8.32741185 8.32716022 8.32682450 8.32646817 8.32619050 8.32612592 8.32643562 8.32729297 8.32885990 8.33124612 8.33446930 8.33844725 8.34295352 8.34767562 8.35311101 8.35311101 8.35311101 8.35311101 8.35311101 8.35311101 8.35311101 8.35311101 8.35311101 8.35311101 8.35087191 8.34760997 8.34337319 8.33937828 8.33594499 8.33313676 8.33100995 8.32951674 8.32855356 8.32800355 8.32774329 8.32765613 8.32765026 8.32766874 8.32768348 8.32768348 8.32766874 8.32765026 8.32765613 8.32774329 8.32800355 8.32855356 8.32951674 8.33100995 8.33313676 8.33594499 8.33937828 8.34337319 8.34760997 8.35087191 8.35311101 8.35311101 8.35311101 8.35311101 8.35311101 8.35311101 8.35311101 8.35311101 8.35311101 8.35311101 8.35311101 8.35311101 8.34853613 8.34460285 8.34125295 8.33823627 8.33576890 8.33383056 8.33236069 8.33131216 8.33060271 8.33012985 8.32980877 8.32960031 8.32949649 8.32949649 8.32960031 8.32980877 8.33012985 8.33060271 8.33131216 8.33236069 8.33383056 8.33576890 8.33823627 8.34125295 8.34460285 8.34853613 8.35311101 8.35311101 8.35311101 8.35311101 8.35311101 8.35311101 8.35311101 8.35311101 8.35311101 8.35311101 8.35311101 8.35311101 8.35311101 8.35311101 8.35311101 8.34951253 8.34689436 8.34380025 8.34127032 8.33912558 8.33733583 8.33596833 8.33497127 8.33423064 8.33365071 8.33323321 8.33301619 8.33301619 8.33323321 8.33365071 8.33423064 8.33497127 8.33596833 8.33733583 8.33912558 8.34127032 8.34380025 8.34689436 8.34951253 8.35311101 8.35311101 8.35311101 8.35311101 8.35311101 8.35311101 8.35311101 8.35311101 8.35311101 8.35311101 8.35311101 8.35311101 8.35311101 8.35311101 8.35311101 8.35311101 8.35311101 8.35311101 8.34926798 8.34710985 8.34494928 8.34300183 8.34155101 8.34050326 8.33966808 8.33887088 8.33823951 8.33790919 8.33790919 8.33823951 8.33887088 8.33966808 8.34050326 8.34155101 8.34300183 8.34494928 8.34710985 8.34926798 8.35311101 8.35311101 8.35311101 8.35311101 8.35311101 8.35311101 8.35311101 8.35311101 8.35311101 8.35311101 8.35311101 8.35311101 8.35311101 8.35311101 8.35311101 8.35311101 8.35311101 8.35311101 8.35311101 8.35311101 8.35311101 8.35311101 8.35053080 8.34860546 8.34745348 8.34669991 8.34601976 8.34488000 8.34394961 8.34350050 8.34350050 8.34394961 8.34488000 8.34601976 8.34669991 8.34745348 8.34860546 8.35053080 8.35311101 8.35311101 8.35311101 8.35311101 8.35311101 8.35311101 8.35311101 8.35311101 8.35311101 8.35311101 8.35311101 8.35311101 8.35311101 8.35311101 8.35311101 8.35311101 8.35311101 8.35311101 8.35311101 8.35311101 8.35311101 8.35311101 8.35311101 8.35311101 8.35311101 8.35311101 8.35311101 8.35311101 8.35311101 8.35066888 8.34934426 8.34885754 8.34885754 8.34934426 8.35066888 8.35311101 8.35311101 8.35311101 8.35311101 8.35311101 8.35311101 8.35311101 8.35311101 8.35311101 8.35311101 8.35311101 8.35311101 8.35311101 8.35311101 8.35311101 8.35311101 8.35311101 8.35311101 8.35311101 8.35311101 8.35311101 8.35311101 8.35311101 8.35311101 8.35311101 8.35311101 8.35311101 8.35311101 8.35311101 8.35311101 8.35311101 8.35311101 8.35311101 8.35311101 8.35311101 8.35311101 8.35311101 8.35311101 8.35311101 8.35311101 8.35311101 8.35311101 8.35311101 8.35311101 8.35311101 8.35311101 8.35311101 8.35311101 8.35311101 8.35311101 8.35311101 8.35311101 8.35311101 8.35311101 8.35311101 8.35311101 8.35311101 8.35311101 8.35311101 8.35311101 8.35311101 8.35311101 8.35311101 8.35311101 8.35311101 8.35311101 8.35311101 8.35311101 8.35311101 8.35311101 8.35311101 8.35311101 8.35311101 8.35311101 8.35311101 8.35311101 8.35311101 8.35311101 8.35311101 8.35311101 8.35311101 8.35311101 8.35311101 8.35311101 8.35311101 8.35311101 8.35311101 8.35311101 8.35311101 8.35311101 8.35311101 8.35311101 8.35311101 8.35311101 8.35311101 8.35311101 8.35311101 8.35311101 8.35311101 8.35311101 8.35311101 8.35311101 8.35311101 8.35311101 8.35311101 8.35311101 8.35311101 8.35311101 8.35311101 8.35311101 8.35311101 8.35311101 8.35311101 8.35311101 8.35311101 8.35311101 8.35311101 8.35311101 8.35311101 8.35311101 8.35311101 8.35311101 8.35311101 8.35311101 8.35311101 8.35311101 8.35311101 8.35311101 8.35311101 8.35311101 8.35311101 8.35311101 8.35311101 8.35311101 8.35311101 8.35311101 8.35311101 8.35311101 8.35311101 8.35311101 8.35311101 8.35311101 8.35311101 8.35311101 8.35311101 8.35311101 8.35311101 8.35311101 8.35311101 8.35311101 8.35311101 8.35311101 8.35311101 8.35311101 8.35311101 8.35311101 8.35311101 8.35311101 8.35311101 8.35311101 8.35311101 8.35311101 8.35311101 8.35311101 8.35311101 8.35311101 8.35311101 8.35311101 8.35311101 8.35311101 8.35311101 8.35311101 8.35311101 8.35311101 8.35311101 8.35311101 8.35311101 8.35311101 8.35311101 8.35311101 8.35311101 8.35311101 8.35311101 8.35311101 8.35311101 8.35311101 8.35311101 8.35311101 8.35311101 8.35311101 8.35311101 8.35311101 8.35311101 8.35311101 8.35311101 8.35311101 8.35311101 8.35311101 8.35311101 8.35311101 8.35311101 8.35311101 8.35311101 8.35311101 8.35311101 8.35311101 8.35311101 8.35311101 8.35311101 8.35311101 8.35311101 8.35311101 8.35311101 8.35311101 8.35311101 8.35311101 8.35311101 8.35311101 8.35311101 8.35311101 8.35311101 8.35311101 8.35311101 8.35311101 8.35311101 8.35311101 8.35311101 8.35311101 8.35311101 8.35311101 8.35311101 8.35311101 8.35311101 8.35311101 8.35311101 8.35311101 8.35311101 8.35311101 8.35311101 8.35311101 8.35311101 8.35311101 8.35311101 8.35311101 8.35311101 8.35311101 8.35311101 8.35311101 8.35311101 8.35311101 8.35311101 8.35311101 8.35311101 8.35311101 8.35311101 8.35311101 8.35311101 8.35311101 8.35311101 8.35311101 8.35311101 8.35311101 8.35311101 8.35311101 8.35311101 8.35311101 8.35311101 8.35311101 8.35311101 8.35311101 8.35311101 8.35311101 8.35311101 8.35311101 8.35311101 8.35311101 8.35311101 8.35311101 8.35311101 8.35311101 8.35311101 8.35311101 8.35311101 8.35311101 8.35311101 8.35311101 8.35311101 8.35311101 8.35311101 8.35311101 8.35311101 8.35311101 8.35311101 8.35311101 8.35311101 8.35311101 8.35311101 8.35311101 8.35311101 8.35311101 8.35311101 8.35311101 8.35311101 8.35311101 8.35311101 8.35311101 8.35311101 8.35311101 8.35311101 8.35311101 8.35311101 8.35311101 8.35311101 8.35311101 8.35311101 8.35311101 8.35311101 8.35311101 8.35311101 8.35311101 8.35311101 8.35311101 8.35311101 8.35311101 8.35311101 8.35311101 8.35311101 8.35311101 8.35311101 8.35311101 8.35311101 8.35311101 8.35311101 8.35311101 8.35311101 8.35311101 8.35311101 