# vtk DataFile Version 3.0
VTK - Matlab export
ASCII
DATASET STRUCTURED_POINTS
DIMENSIONS 40 40 1
SPACING 1 1 1
ORIGIN 0 0 0
POINT_DATA 1600
SCALARS lambda-2 float 1
LOOKUP_TABLE default
8.35311101 8.35311101 8.35311101 8.35311101 8.35311101 8.35311101 8.35311101 8.35311101 8.35311101 8.35311101 8.35311101 8.35311101 8.35311101 8.35311101 8.35311101 8.35311101 8.35311101 8.35311101 8.35311101 8.35311101 8.35311101 8.35311101 8.35311101 8.35311101 8.35311101 8.35311101 8.35311101 8.35311101 8.35311101 8.35311101 8.35311101 8.35311101 8.35311101 8.35311101 8.35311101 8.35311101 8.35311101 8.35311101 8.35311101 8.35311101 8.35311101 8.35311101 8.35311101 8.35311101 8.35311101 8.35311101 8.35311101 8.35311101 8.35311101 8.35311101 8.35311101 8.35311101 8.35311101 8.35311101 8.35311101 8.35311101 8.35311101 8.35311101 8.35311101 8.35311101 8.35311101 8.35311101 8.35311101 8.35311101 8.35311101 8.35311101 8.35311101 8.35311101 8.35311101 8.35311101 8.35311101 8.35311101 8.35311101 8.35311101 8.35311101 8.35311101 8.35311101 8.35311101 8.35311101 8.35311101 8.35311101 8.35311101 8.35311101 8.35311101 8.35311101 8.35311101 8.35311101 8.35311101 8.35311101 8.35311101 8.35311101 8.35311101 8.35311101 8.35311101 8.35311101 8.35311101 8.35311101 8.35311101 8.35311101 8.35311101 8.35311101 8.35311101 8.35311101 8.35311101 8.35311101 8.35311101 8.35311101 8.35311101 8.35311101 8.35311101 8.35311101 8.35311101 8.35311101 8.35311101 8.35311101 8.35311101 8.35311101 8.35311101 8.35311101 8.35311101 8.35311101 8.35311101 8.35311101 8.35311101 8.35311101 8.35311101 8.35311101 8.35311101 8.35311101 8.35311101 8.35311101 8.35311101 8.35311101 8.35311101 8.35311101 8.35311101 8.35311101 8.35311101 8.35311101 8.35311101 8.35311101 8.35311101 8.35311101 8.35311101 8.35311101 8.35311101 8.35311101 8.35311101 8.35311101 8.35311101 8.35311101 8.35311101 8.35311101 8.35311101 8.35311101 8.35311101 8.35311101 8.35311101 8.35311101 8.35311101 8.35311101 8.35311101 8.35311101 8.35311101 8.35311101 8.35311101 8.35311101 8.35311101 8.35311101 8.35311101 8.35311101 8.35311101 8.35311101 8.35311101 8.35311101 8.35311101 8.35311101 8.35311101 8.35311101 8.35311101 8.35311101 8.35311101 8.35311101 8.35311101 8.35311101 8.35311101 8.35311101 8.35311101 8.35311101 8.35311101 8.35311101 8.35311101 8.35311101 8.35311101 8.35311101 8.35311101 8.35311101 8.35311101 8.35311101 8.35311101 8.35311101 8.35311101 8.35311101 8.35311101 8.35311101 8.35311101 8.35311101 8.35311101 8.35311101 8.35311101 8.35311101 8.35311101 8.35311101 8.35311101 8.35311101 8.35311101 8.35311101 8.35311101 8.35311101 8.35311101 8.35311101 8.35311101 8.35311101 8.35311101 8.35311101 8.35311101 8.35311101 8.35311101 8.35311101 8.35311101 8.35311101 8.35311101 8.35311101 8.35311101 8.35311101 8.35311101 8.35311101 8.35311101 8.35311101 8.35311101 8.35311101 8.35311101 8.35311101 8.35311101 8.35311101 8.35311101 8.35311101 8.35311101 8.35311101 8.35311101 8.35311101 8.35311101 8.35311101 8.35311101 8.35311101 8.35311101 8.35311101 8.35311101 8.35311101 8.35311101 8.35311101 8.35311101 8.35311101 8.35311101 8.35311101 8.35311101 8.35311101 8.35311101 8.35311101 8.35311101 8.35311101 8.35311101 8.35311101 8.35311101 8.35311101 8.35311101 8.35311101 8.35311101 8.35311101 8.35311101 8.35311101 8.35311101 8.35311101 8.35311101 8.35311101 8.35311101 8.35311101 8.35311101 8.35311101 8.35311101 8.35311101 8.35311101 8.35311101 8.35311101 8.35311101 8.35311101 8.35311101 8.35311101 8.35311101 8.35311101 8.35311101 8.35311101 8.35311101 8.35311101 8.35311101 8.35311101 8.35311101 8.35311101 8.35311101 8.35311101 8.35311101 8.35311101 8.35311101 8.35311101 8.35311101 8.35311101 8.35311101 8.35311101 8.35311101 8.35311101 8.35311101 8.35311101 8.35311101 8.35311101 8.35311101 8.35311101 8.35311101 8.35311101 8.35311101 8.35311101 8.35311101 8.35311101 8.35311101 8.35311101 8.35311101 8.35311101 8.35311101 8.35133226 8.35037556 8.35002608 8.35002608 8.35037556 8.35133226 8.35311101 8.35311101 8.35311101 8.35311101 8.35311101 8.35311101 8.35311101 8.35311101 8.35311101 8.35311101 8.35311101 8.35311101 8.35311101 8.35311101 8.35311101 8.35311101 8.35311101 8.35311101 8.35311101 8.35311101 8.35311101 8.35311101 8.35311101 8.35311101 8.35311101 8.35311101 8.35311101 8.35311101 8.35311101 8.35123323 8.34982915 8.34897952 8.34841450 8.34790448 8.34706903 8.34639309 8.34606800 8.34606800 8.34639309 8.34706903 8.34790448 8.34841450 8.34897952 8.34982915 8.35123323 8.35311101 8.35311101 8.35311101 8.35311101 8.35311101 8.35311101 8.35311101 8.35311101 8.35311101 8.35311101 8.35311101 8.35311101 8.35311101 8.35311101 8.35311101 8.35311101 8.35311101 8.35311101 8.35311101 8.35311101 8.35311101 8.35311101 8.35032099 8.34873599 8.34713512 8.34567842 8.34457276 8.34375644 8.34310041 8.34248565 8.34200588 8.34175628 8.34175628 8.34200588 8.34248565 8.34310041 8.34375644 8.34457276 8.34567842 8.34713512 8.34873599 8.35032099 8.35311101 8.35311101 8.35311101 8.35311101 8.35311101 8.35311101 8.35311101 8.35311101 8.35311101 8.35311101 8.35311101 8.35311101 8.35311101 8.35311101 8.35311101 8.35311101 8.35311101 8.35311101 8.35051796 8.34860113 8.34630989 8.34439268 8.34272816 8.34130614 8.34018559 8.33934004 8.33869772 8.33819703 8.33784179 8.33765872 8.33765872 8.33784179 8.33819703 8.33869772 8.33934004 8.34018559 8.34130614 8.34272816 8.34439268 8.34630989 8.34860113 8.35051796 8.35311101 8.35311101 8.35311101 8.35311101 8.35311101 8.35311101 8.35311101 8.35311101 8.35311101 8.35311101 8.35311101 8.35311101 8.35311101 8.35311101 8.35311101 8.34983111 8.34696062 8.34444511 8.34210862 8.34011787 8.33847781 8.33716696 8.33617075 8.33544546 8.33492833 8.33456438 8.33432692 8.33420911 8.33420911 8.33432692 8.33456438 8.33492833 8.33544546 8.33617075 8.33716696 8.33847781 8.34011787 8.34210862 8.34444511 8.34696062 8.34983111 8.35311101 8.35311101 8.35311101 8.35311101 8.35311101 8.35311101 8.35311101 8.35311101 8.35311101 8.35311101 8.35311101 8.35311101 8.35153724 8.34920825 8.34612096 8.34311338 8.34040671 8.33806087 8.33614487 8.33466014 8.33356693 8.33280853 8.33231390 8.33200788 8.33182606 8.33172465 8.33167932 8.33167932 8.33172465 8.33182606 8.33200788 8.33231390 8.33280853 8.33356693 8.33466014 8.33614487 8.33806087 8.34040671 8.34311338 8.34612096 8.34920825 8.35153724 8.35311101 8.35311101 8.35311101 8.35311101 8.35311101 8.35311101 8.35311101 8.35311101 8.35311101 8.35311101 8.34929774 8.34590082 8.34253190 8.33939333 8.33665346 8.33440456 8.33268467 8.33147033 8.33069300 8.33026086 8.33007409 8.33003816 8.33007478 8.33012767 8.33016221 8.33016221 8.33012767 8.33007478 8.33003816 8.33007409 8.33026086 8.33069300 8.33147033 8.33268467 8.33440456 8.33665346 8.33939333 8.34253190 8.34590082 8.34929774 8.35311101 8.35311101 8.35311101 8.35311101 8.35311101 8.35311101 8.35311101 8.35311101 8.35311101 8.35011557 8.34648791 8.34279199 8.33923852 8.33604290 8.33336989 8.33130843 8.32987180 8.32900553 8.32860746 8.32855220 8.32871214 8.32897290 8.32924284 8.32945641 8.32957281 8.32957281 8.32945641 8.32924284 8.32897290 8.32871214 8.32855220 8.32860746 8.32900553 8.32987180 8.33130843 8.33336989 8.33604290 8.33923852 8.34279199 8.34648791 8.35011557 8.35311101 8.35311101 8.35311101 8.35311101 8.35311101 8.35311101 8.35311101 8.35100051 8.34775971 8.34396601 8.34007838 8.33641696 8.33322979 8.33068583 8.32886291 8.32774915 8.32725785 8.32725308 8.32757840 8.32808137 8.32863041 8.32912317 8.32948794 8.32968064 8.32968064 8.32948794 8.32912317 8.32863041 8.32808137 8.32757840 8.32725308 8.32725785 8.32774915 8.32886291 8.33068583 8.33322979 8.33641696 8.34007838 8.34396601 8.34775971 8.35100051 8.35311101 8.35311101 8.35311101 8.35311101 8.35311101 8.35311101 8.34981007 8.34604628 8.34197985 8.33792896 8.33420516 8.33106259 8.32866805 8.32708565 8.32627966 8.32613408 8.32648328 8.32714463 8.32794575 8.32874186 8.32942323 8.32991469 8.33017090 8.33017090 8.32991469 8.32942323 8.32874186 8.32794575 8.32714463 8.32648328 8.32613408 8.32627966 8.32708565 8.32866805 8.33106259 8.33420516 8.33792896 8.34197985 8.34604628 8.34981007 8.35311101 8.35311101 8.35311101 8.35311101 8.35311101 8.35311101 8.34904723 8.34489662 8.34061401 8.33644694 8.33269146 8.32959963 8.32733336 8.32594459 8.32537870 8.32549739 8.32611289 8.32702376 8.32804371 8.32901933 8.32983651 8.33041853 8.33071991 8.33071991 8.33041853 8.32983651 8.32901933 8.32804371 8.32702376 8.32611289 8.32549739 8.32537870 8.32594459 8.32733336 8.32959963 8.33269146 8.33644694 8.34061401 8.34489662 8.34904723 8.35311101 8.35311101 8.35311101 8.35311101 8.35311101 8.35190852 8.34843022 8.34426963 8.33990969 8.33569050 8.33192403 8.32886480 8.32667213 8.32539100 8.32495642 8.32521798 8.32597617 8.32701967 8.32815513 8.32922489 8.33011289 8.33074194 8.33106671 8.33106671 8.33074194 8.33011289 8.32922489 8.32815513 8.32701967 8.32597617 8.32521798 8.32495642 8.32539100 8.32667213 8.32886480 8.33192403 8.33569050 8.33990969 8.34426963 8.34843022 8.35190852 8.35311101 8.35311101 8.35311101 8.35311101 8.35190852 8.34843022 8.34426963 8.33990969 8.33569050 8.33192403 8.32886480 8.32667213 8.32539100 8.32495642 8.32521798 8.32597617 8.32701967 8.32815513 8.32922489 8.33011289 8.33074194 8.33106671 8.33106671 8.33074194 8.33011289 8.32922489 8.32815513 8.32701967 8.32597617 8.32521798 8.32495642 8.32539100 8.32667213 8.32886480 8.33192403 8.33569050 8.33990969 8.34426963 8.34843022 8.35190852 8.35311101 8.35311101 8.35311101 8.35311101 8.35311101 8.34904723 8.34489662 8.34061401 8.33644694 8.33269146 8.32959963 8.32733336 8.32594459 8.32537870 8.32549739 8.32611289 8.32702376 8.32804371 8.32901933 8.32983651 8.33041853 8.33071991 8.33071991 8.33041853 8.32983651 8.32901933 8.32804371 8.32702376 8.32611289 8.32549739 8.32537870 8.32594459 8.32733336 8.32959963 8.33269146 8.33644694 8.34061401 8.34489662 8.34904723 8.35311101 8.35311101 8.35311101 8.35311101 8.35311101 8.35311101 8.34981007 8.34604628 8.34197985 8.33792896 8.33420516 8.33106259 8.32866805 8.32708565 8.32627966 8.32613408 8.32648328 8.32714463 8.32794575 8.32874186 8.32942323 8.32991469 8.33017090 8.33017090 8.32991469 8.32942323 8.32874186 8.32794575 8.32714463 8.32648328 8.32613408 8.32627966 8.32708565 8.32866805 8.33106259 8.33420516 8.33792896 8.34197985 8.34604628 8.34981007 8.35311101 8.35311101 8.35311101 8.35311101 8.35311101 8.35311101 8.35100051 8.34775971 8.34396601 8.34007838 8.33641696 8.33322979 8.33068583 8.32886291 8.32774915 8.32725785 8.32725308 8.32757840 8.32808137 8.32863041 8.32912317 8.32948794 8.32968064 8.32968064 8.32948794 8.32912317 8.32863041 8.32808137 8.32757840 8.32725308 8.32725785 8.32774915 8.32886291 8.33068583 8.33322979 8.33641696 8.34007838 8.34396601 8.34775971 8.35100051 8.35311101 8.35311101 8.35311101 8.35311101 8.35311101 8.35311101 8.35311101 8.35011557 8.34648791 8.34279199 8.33923852 8.33604290 8.33336989 8.33130843 8.32987180 8.32900553 8.32860746 8.32855220 8.32871214 8.32897290 8.32924284 8.32945641 8.32957281 8.32957281 8.32945641 8.32924284 8.32897290 8.32871214 8.32855220 8.32860746 8.32900553 8.32987180 8.33130843 8.33336989 8.33604290 8.33923852 8.34279199 8.34648791 8.35011557 8.35311101 8.35311101 8.35311101 8.35311101 8.35311101 8.35311101 8.35311101 8.35311101 8.35311101 8.34929774 8.34590082 8.34253190 8.33939333 8.33665346 8.33440456 8.33268467 8.33147033 8.33069300 8.33026086 8.33007409 8.33003816 8.33007478 8.33012767 8.33016221 8.33016221 8.33012767 8.33007478 8.33003816 8.33007409 8.33026086 8.33069300 8.33147033 8.33268467 8.33440456 8.33665346 8.33939333 8.34253190 8.34590082 8.34929774 8.35311101 8.35311101 8.35311101 8.35311101 8.35311101 8.35311101 8.35311101 8.35311101 8.35311101 8.35311101 8.35153724 8.34920825 8.34612096 8.34311338 8.34040671 8.33806087 8.33614487 8.33466014 8.33356693 8.33280853 8.33231390 8.33200788 8.33182606 8.33172465 8.33167932 8.33167932 8.33172465 8.33182606 8.33200788 8.33231390 8.33280853 8.33356693 8.33466014 8.33614487 8.33806087 8.34040671 8.34311338 8.34612096 8.34920825 8.35153724 8.35311101 8.35311101 8.35311101 8.35311101 8.35311101 8.35311101 8.35311101 8.35311101 8.35311101 8.35311101 8.35311101 8.35311101 8.34983111 8.34696062 8.34444511 8.34210862 8.34011787 8.33847781 8.33716696 8.33617075 8.33544546 8.33492833 8.33456438 8.33432692 8.33420911 8.33420911 8.33432692 8.33456438 8.33492833 8.33544546 8.33617075 8.33716696 8.33847781 8.34011787 8.34210862 8.34444511 8.34696062 8.34983111 8.35311101 8.35311101 8.35311101 8.35311101 8.35311101 8.35311101 8.35311101 8.35311101 8.35311101 8.35311101 8.35311101 8.35311101 8.35311101 8.35311101 8.35311101 8.35051796 8.34860113 8.34630989 8.34439268 8.34272816 8.34130614 8.34018559 8.33934004 8.33869772 8.33819703 8.33784179 8.33765872 8.33765872 8.33784179 8.33819703 8.33869772 8.33934004 8.34018559 8.34130614 8.34272816 8.34439268 8.34630989 8.34860113 8.35051796 8.35311101 8.35311101 8.35311101 8.35311101 8.35311101 8.35311101 8.35311101 8.35311101 8.35311101 8.35311101 8.35311101 8.35311101 8.35311101 8.35311101 8.35311101 8.35311101 8.35311101 8.35311101 8.35032099 8.34873599 8.34713512 8.34567842 8.34457276 8.34375644 8.34310041 8.34248565 8.34200588 8.34175628 8.34175628 8.34200588 8.34248565 8.34310041 8.34375644 8.34457276 8.34567842 8.34713512 8.34873599 8.35032099 8.35311101 8.35311101 8.35311101 8.35311101 8.35311101 8.35311101 8.35311101 8.35311101 8.35311101 8.35311101 8.35311101 8.35311101 8.35311101 8.35311101 8.35311101 8.35311101 8.35311101 8.35311101 8.35311101 8.35311101 8.35311101 8.35311101 8.35123323 8.34982915 8.34897952 8.34841450 8.34790448 8.34706903 8.34639309 8.34606800 8.34606800 8.34639309 8.34706903 8.34790448 8.34841450 8.34897952 8.34982915 8.35123323 8.35311101 8.35311101 8.35311101 8.35311101 8.35311101 8.35311101 8.35311101 8.35311101 8.35311101 8.35311101 8.35311101 8.35311101 8.35311101 8.35311101 8.35311101 8.35311101 8.35311101 8.35311101 8.35311101 8.35311101 8.35311101 8.35311101 8.35311101 8.35311101 8.35311101 8.35311101 8.35311101 8.35311101 8.35311101 8.35133226 8.35037556 8.35002608 8.35002608 8.35037556 8.35133226 8.35311101 8.35311101 8.35311101 8.35311101 8.35311101 8.35311101 8.35311101 8.35311101 8.35311101 8.35311101 8.35311101 8.35311101 8.35311101 8.35311101 8.35311101 8.35311101 8.35311101 8.35311101 8.35311101 8.35311101 8.35311101 8.35311101 8.35311101 8.35311101 8.35311101 8.35311101 8.35311101 8.35311101 8.35311101 8.35311101 8.35311101 8.35311101 8.35311101 8.35311101 8.35311101 8.35311101 8.35311101 8.35311101 8.35311101 8.35311101 8.35311101 8.35311101 8.35311101 8.35311101 8.35311101 8.35311101 8.35311101 8.35311101 8.35311101 8.35311101 8.35311101 8.35311101 8.35311101 8.35311101 8.35311101 8.35311101 8.35311101 8.35311101 8.35311101 8.35311101 8.35311101 8.35311101 8.35311101 8.35311101 8.35311101 8.35311101 8.35311101 8.35311101 8.35311101 8.35311101 8.35311101 8.35311101 8.35311101 8.35311101 8.35311101 8.35311101 8.35311101 8.35311101 8.35311101 8.35311101 8.35311101 8.35311101 8.35311101 8.35311101 8.35311101 8.35311101 8.35311101 8.35311101 8.35311101 8.35311101 8.35311101 8.35311101 8.35311101 8.35311101 8.35311101 8.35311101 8.35311101 8.35311101 8.35311101 8.35311101 8.35311101 8.35311101 8.35311101 8.35311101 8.35311101 8.35311101 8.35311101 8.35311101 8.35311101 8.35311101 8.35311101 8.35311101 8.35311101 8.35311101 8.35311101 8.35311101 8.35311101 8.35311101 8.35311101 8.35311101 8.35311101 8.35311101 8.35311101 8.35311101 8.35311101 8.35311101 8.35311101 8.35311101 8.35311101 8.35311101 8.35311101 8.35311101 8.35311101 8.35311101 8.35311101 8.35311101 8.35311101 8.35311101 8.35311101 8.35311101 8.35311101 8.35311101 8.35311101 8.35311101 8.35311101 8.35311101 8.35311101 8.35311101 8.35311101 8.35311101 8.35311101 8.35311101 8.35311101 8.35311101 8.35311101 8.35311101 8.35311101 8.35311101 8.35311101 8.35311101 8.35311101 8.35311101 8.35311101 8.35311101 8.35311101 8.35311101 8.35311101 8.35311101 8.35311101 8.35311101 8.35311101 8.35311101 8.35311101 8.35311101 8.35311101 8.35311101 8.35311101 8.35311101 8.35311101 8.35311101 8.35311101 8.35311101 8.35311101 8.35311101 8.35311101 8.35311101 8.35311101 8.35311101 8.35311101 8.35311101 8.35311101 8.35311101 8.35311101 8.35311101 8.35311101 8.35311101 8.35311101 8.35311101 8.35311101 8.35311101 8.35311101 8.35311101 8.35311101 8.35311101 8.35311101 8.35311101 8.35311101 8.35311101 8.35311101 8.35311101 8.35311101 8.35311101 8.35311101 8.35311101 8.35311101 8.35311101 8.35311101 8.35311101 8.35311101 8.35311101 8.35311101 8.35311101 8.35311101 8.35311101 8.35311101 8.35311101 8.35311101 8.35311101 8.35311101 8.35311101 8.35311101 8.35311101 8.35311101 8.35311101 8.35311101 8.35311101 8.35311101 8.35311101 8.35311101 8.35311101 8.35311101 8.35311101 8.35311101 8.35311101 8.35311101 8.35311101 8.35311101 8.35311101 8.35311101 8.35311101 8.35311101 8.35311101 8.35311101 8.35311101 8.35311101 8.35311101 8.35311101 8.35311101 8.35311101 8.35311101 8.35311101 8.35311101 8.35311101 8.35311101 8.35311101 8.35311101 8.35311101 8.35311101 8.35311101 8.35311101 8.35311101 8.35311101 8.35311101 8.35311101 8.35311101 8.35311101 8.35311101 8.35311101 8.35311101 8.35311101 8.35311101 8.35311101 8.35311101 8.35311101 8.35311101 8.35311101 8.35311101 8.35311101 8.35311101 8.35311101 8.35311101 8.35311101 8.35311101 8.35311101 8.35311101 8.35311101 8.35311101 8.35311101 8.35311101 8.35311101 8.35311101 8.35311101 8.35311101 8.35311101 8.35311101 8.35311101 8.35311101 8.35311101 8.35311101 8.35311101 8.35311101 8.35311101 8.35311101 8.35311101 8.35311101 8.35311101 8.35311101 8.35311101 8.35311101 8.35311101 8.35311101 8.35311101 8.35311101 8.35311101 8.35311101 8.35311101 8.35311101 8.35311101 8.35311101 8.35311101 8.35311101 8.35311101 8.35311101 8.35311101 8.35311101 8.35311101 8.35311101 