# vtk DataFile Version 3.0
VTK - Matlab export
ASCII
DATASET STRUCTURED_POINTS
DIMENSIONS 40 40 1
SPACING 1 1 1
ORIGIN 0 0 0
POINT_DATA 1600
SCALARS Proofstrength float 1
LOOKUP_TABLE default
142.25514280 142.25514280 142.25514280 142.25514280 142.25514280 142.25514280 142.25514280 142.25514280 142.25514280 142.25514280 142.25514280 142.25514280 142.25514280 142.25514280 142.25514280 142.25514280 142.25514280 142.25514280 142.25514280 142.25514280 142.25514280 142.25514280 142.25514280 142.25514280 142.25514280 142.25514280 142.25514280 142.25514280 142.25514280 142.25514280 142.25514280 142.25514280 142.25514280 142.25514280 142.25514280 142.25514280 142.25514280 142.25514280 142.25514280 142.25514280 142.25514280 142.25514280 142.25514280 142.25514280 142.25514280 142.25514280 142.25514280 142.25514280 142.25514280 142.25514280 142.25514280 142.25514280 142.25514280 142.25514280 142.25514280 142.25514280 142.25514280 142.25514280 142.25514280 142.25514280 142.25514280 142.25514280 142.25514280 142.25514280 142.25514280 142.25514280 142.25514280 142.25514280 142.25514280 142.25514280 142.25514280 142.25514280 142.25514280 142.25514280 142.25514280 142.25514280 142.25514280 142.25514280 142.25514280 142.25514280 142.25514280 142.25514280 142.25514280 142.25514280 142.25514280 142.25514280 142.25514280 142.25514280 142.25514280 142.25514280 142.25514280 142.25514280 142.25514280 142.25514280 142.25514280 142.25514280 142.25514280 142.25514280 142.25514280 142.25514280 142.25514280 142.25514280 142.25514280 142.25514280 142.25514280 142.25514280 142.25514280 142.25514280 142.25514280 142.25514280 142.25514280 142.25514280 142.25514280 142.25514280 142.25514280 142.25514280 142.25514280 142.25514280 142.25514280 142.25514280 142.25514280 142.25514280 142.25514280 142.25514280 142.25514280 142.25514280 142.25514280 142.25514280 142.25514280 142.25514280 142.25514280 142.25514280 142.25514280 142.25514280 142.25514280 142.25514280 142.25514280 142.25514280 142.25514280 142.25514280 142.25514280 142.25514280 142.25514280 142.25514280 142.25514280 142.25514280 142.25514280 142.25514280 142.25514280 142.25514280 142.25514280 142.25514280 142.25514280 142.25514280 142.25514280 142.25514280 142.25514280 142.25514280 142.25514280 142.25514280 142.25514280 142.25514280 142.25514280 142.25514280 142.25514280 142.25514280 142.25514280 142.25514280 142.25514280 142.25514280 142.25514280 142.25514280 142.25514280 142.25514280 142.25514280 142.25514280 142.25514280 142.25514280 142.25514280 142.25514280 142.25514280 142.25514280 142.25514280 142.25514280 142.25514280 142.25514280 142.25514280 142.25514280 142.25514280 142.25514280 142.25514280 142.25514280 142.25514280 142.25514280 142.25514280 142.25514280 142.25514280 142.25514280 142.25514280 142.25514280 142.25514280 142.25514280 142.25514280 142.25514280 142.25514280 142.25514280 142.25514280 142.25514280 142.25514280 142.25514280 142.25514280 142.25514280 142.25514280 142.25514280 142.25514280 142.25514280 142.25514280 142.25514280 142.25514280 142.25514280 142.25514280 142.25514280 142.25514280 142.25514280 142.25514280 142.25514280 142.25514280 142.25514280 142.25514280 142.25514280 142.25514280 142.25514280 142.25514280 142.25514280 142.25514280 142.25514280 142.25514280 142.25514280 142.25514280 142.25514280 142.25514280 142.25514280 142.25514280 142.25514280 142.25514280 142.25514280 142.25514280 142.25514280 142.25514280 142.25514280 142.25514280 142.25514280 142.25514280 142.25514280 142.25514280 142.25514280 142.25514280 142.25514280 142.25514280 142.25514280 142.25514280 142.25514280 142.25514280 142.25514280 142.25514280 142.25514280 142.25514280 142.25514280 142.25514280 142.25514280 142.25514280 142.25514280 142.25514280 142.25514280 142.25514280 142.25514280 142.25514280 142.25514280 142.25514280 142.25514280 142.25514280 142.25514280 142.25514280 142.25514280 142.25514280 142.25514280 142.25514280 142.25514280 142.25514280 142.25514280 142.25514280 142.25514280 142.25514280 142.25514280 142.25514280 142.25514280 142.25514280 142.25514280 142.25514280 142.25514280 142.25514280 142.25514280 142.25514280 142.25514280 142.25514280 142.25514280 142.25514280 142.25514280 142.25514280 142.25514280 142.25514280 142.25514280 142.25514280 142.25514280 142.25514280 142.25514280 142.25514280 142.25514280 142.25514280 142.25514280 142.25514280 142.25514280 142.25514280 142.25514280 142.25514280 142.25514280 142.25514280 142.25514280 142.25514280 142.25514280 142.25514280 142.25514280 142.25514280 142.25514280 142.25514280 142.25514280 142.25514280 142.25607860 142.25657889 142.25676093 142.25676093 142.25657889 142.25607860 142.25514280 142.25514280 142.25514280 142.25514280 142.25514280 142.25514280 142.25514280 142.25514280 142.25514280 142.25514280 142.25514280 142.25514280 142.25514280 142.25514280 142.25514280 142.25514280 142.25514280 142.25514280 142.25514280 142.25514280 142.25514280 142.25514280 142.25514280 142.25514280 142.25514280 142.25514280 142.25514280 142.25514280 142.25514280 142.25612441 142.25686156 142.25731271 142.25761715 142.25789215 142.25833403 142.25868913 142.25885950 142.25885950 142.25868913 142.25833403 142.25789215 142.25761715 142.25731271 142.25686156 142.25612441 142.25514280 142.25514280 142.25514280 142.25514280 142.25514280 142.25514280 142.25514280 142.25514280 142.25514280 142.25514280 142.25514280 142.25514280 142.25514280 142.25514280 142.25514280 142.25514280 142.25514280 142.25514280 142.25514280 142.25514280 142.25514280 142.25514280 142.25658995 142.25742266 142.25827208 142.25905234 142.25965410 142.26010633 142.26047220 142.26081048 142.26107163 142.26120697 142.26120697 142.26107163 142.26081048 142.26047220 142.26010633 142.25965410 142.25905234 142.25827208 142.25742266 142.25658995 142.25514280 142.25514280 142.25514280 142.25514280 142.25514280 142.25514280 142.25514280 142.25514280 142.25514280 142.25514280 142.25514280 142.25514280 142.25514280 142.25514280 142.25514280 142.25514280 142.25514280 142.25514280 142.25647119 142.25746834 142.25867421 142.25970396 142.26061675 142.26141220 142.26205439 142.26255147 142.26293541 142.26323436 142.26344476 142.26355267 142.26355267 142.26344476 142.26323436 142.26293541 142.26255147 142.26205439 142.26141220 142.26061675 142.25970396 142.25867421 142.25746834 142.25647119 142.25514280 142.25514280 142.25514280 142.25514280 142.25514280 142.25514280 142.25514280 142.25514280 142.25514280 142.25514280 142.25514280 142.25514280 142.25514280 142.25514280 142.25514280 142.25680918 142.25829024 142.25961879 142.26088436 142.26199776 142.26294892 142.26373913 142.26436626 142.26484434 142.26519905 142.26545442 142.26562224 142.26570563 142.26570563 142.26562224 142.26545442 142.26519905 142.26484434 142.26436626 142.26373913 142.26294892 142.26199776 142.26088436 142.25961879 142.25829024 142.25680918 142.25514280 142.25514280 142.25514280 142.25514280 142.25514280 142.25514280 142.25514280 142.25514280 142.25514280 142.25514280 142.25514280 142.25514280 142.25592723 142.25710242 142.25868510 142.26026480 142.26173505 142.26306310 142.26420526 142.26514766 142.26589552 142.26646367 142.26687699 142.26716606 142.26735949 142.26747815 142.26753455 142.26753455 142.26747815 142.26735949 142.26716606 142.26687699 142.26646367 142.26589552 142.26514766 142.26420526 142.26306310 142.26173505 142.26026480 142.25868510 142.25710242 142.25592723 142.25514280 142.25514280 142.25514280 142.25514280 142.25514280 142.25514280 142.25514280 142.25514280 142.25514280 142.25514280 142.25703690 142.25875420 142.26050347 142.26219361 142.26374272 142.26509769 142.26622450 142.26711514 142.26778314 142.26825634 142.26857143 142.26876799 142.26888229 142.26894277 142.26896833 142.26896833 142.26894277 142.26888229 142.26876799 142.26857143 142.26825634 142.26778314 142.26711514 142.26622450 142.26509769 142.26374272 142.26219361 142.26050347 142.25875420 142.25703690 142.25514280 142.25514280 142.25514280 142.25514280 142.25514280 142.25514280 142.25514280 142.25514280 142.25514280 142.25661328 142.25841949 142.26030432 142.26218241 142.26395756 142.26554747 142.26689558 142.26797333 142.26878073 142.26934166 142.26969625 142.26989308 142.26998178 142.27000691 142.27000374 142.26999615 142.26999615 142.27000374 142.27000691 142.26998178 142.26989308 142.26969625 142.26934166 142.26878073 142.26797333 142.26689558 142.26554747 142.26395756 142.26218241 142.26030432 142.25841949 142.25661328 142.25514280 142.25514280 142.25514280 142.25514280 142.25514280 142.25514280 142.25514280 142.25616842 142.25775908 142.25965619 142.26166005 142.26363412 142.26546649 142.26706997 142.26838793 142.26939701 142.27010573 142.27054857 142.27077726 142.27085146 142.27083037 142.27076626 142.27070024 142.27066022 142.27066022 142.27070024 142.27076626 142.27083037 142.27085146 142.27077726 142.27054857 142.27010573 142.26939701 142.26838793 142.26706997 142.26546649 142.26363412 142.26166005 142.25965619 142.25775908 142.25616842 142.25514280 142.25514280 142.25514280 142.25514280 142.25514280 142.25514280 142.25674315 142.25858895 142.26062979 142.26273837 142.26478417 142.26665188 142.26825239 142.26953043 142.27046770 142.27108051 142.27141281 142.27152629 142.27148999 142.27137114 142.27122833 142.27110734 142.27103909 142.27103909 142.27110734 142.27122833 142.27137114 142.27148999 142.27152629 142.27141281 142.27108051 142.27046770 142.26953043 142.26825239 142.26665188 142.26478417 142.26273837 142.26062979 142.25858895 142.25674315 142.25514280 142.25514280 142.25514280 142.25514280 142.25514280 142.25514280 142.25711000 142.25914473 142.26129996 142.26348528 142.26557894 142.26746609 142.26905744 142.27029947 142.27117792 142.27171511 142.27196206 142.27198780 142.27186818 142.27167616 142.27147483 142.27131313 142.27122404 142.27122404 142.27131313 142.27147483 142.27167616 142.27186818 142.27198780 142.27196206 142.27171511 142.27117792 142.27029947 142.26905744 142.26746609 142.26557894 142.26348528 142.26129996 142.25914473 142.25711000 142.25514280 142.25514280 142.25514280 142.25514280 142.25514280 142.25572249 142.25740585 142.25944727 142.26164574 142.26386777 142.26598464 142.26788001 142.26946441 142.27068534 142.27153083 142.27202642 142.27222695 142.27220532 142.27204097 142.27180985 142.27157733 142.27139401 142.27129387 142.27129387 142.27139401 142.27157733 142.27180985 142.27204097 142.27220532 142.27222695 142.27202642 142.27153083 142.27068534 142.26946441 142.26788001 142.26598464 142.26386777 142.26164574 142.25944727 142.25740585 142.25572249 142.25514280 142.25514280 142.25514280 142.25514280 142.25572249 142.25740585 142.25944727 142.26164574 142.26386777 142.26598464 142.26788001 142.26946441 142.27068534 142.27153083 142.27202642 142.27222695 142.27220532 142.27204097 142.27180985 142.27157733 142.27139401 142.27129387 142.27129387 142.27139401 142.27157733 142.27180985 142.27204097 142.27220532 142.27222695 142.27202642 142.27153083 142.27068534 142.26946441 142.26788001 142.26598464 142.26386777 142.26164574 142.25944727 142.25740585 142.25572249 142.25514280 142.25514280 142.25514280 142.25514280 142.25514280 142.25711000 142.25914473 142.26129996 142.26348528 142.26557894 142.26746609 142.26905744 142.27029947 142.27117792 142.27171511 142.27196206 142.27198780 142.27186818 142.27167616 142.27147483 142.27131313 142.27122404 142.27122404 142.27131313 142.27147483 142.27167616 142.27186818 142.27198780 142.27196206 142.27171511 142.27117792 142.27029947 142.26905744 142.26746609 142.26557894 142.26348528 142.26129996 142.25914473 142.25711000 142.25514280 142.25514280 142.25514280 142.25514280 142.25514280 142.25514280 142.25674315 142.25858895 142.26062979 142.26273837 142.26478417 142.26665188 142.26825239 142.26953043 142.27046770 142.27108051 142.27141281 142.27152629 142.27148999 142.27137114 142.27122833 142.27110734 142.27103909 142.27103909 142.27110734 142.27122833 142.27137114 142.27148999 142.27152629 142.27141281 142.27108051 142.27046770 142.26953043 142.26825239 142.26665188 142.26478417 142.26273837 142.26062979 142.25858895 142.25674315 142.25514280 142.25514280 142.25514280 142.25514280 142.25514280 142.25514280 142.25616842 142.25775908 142.25965619 142.26166005 142.26363412 142.26546649 142.26706997 142.26838793 142.26939701 142.27010573 142.27054857 142.27077726 142.27085146 142.27083037 142.27076626 142.27070024 142.27066022 142.27066022 142.27070024 142.27076626 142.27083037 142.27085146 142.27077726 142.27054857 142.27010573 142.26939701 142.26838793 142.26706997 142.26546649 142.26363412 142.26166005 142.25965619 142.25775908 142.25616842 142.25514280 142.25514280 142.25514280 142.25514280 142.25514280 142.25514280 142.25514280 142.25661328 142.25841949 142.26030432 142.26218241 142.26395756 142.26554747 142.26689558 142.26797333 142.26878073 142.26934166 142.26969625 142.26989308 142.26998178 142.27000691 142.27000374 142.26999615 142.26999615 142.27000374 142.27000691 142.26998178 142.26989308 142.26969625 142.26934166 142.26878073 142.26797333 142.26689558 142.26554747 142.26395756 142.26218241 142.26030432 142.25841949 142.25661328 142.25514280 142.25514280 142.25514280 142.25514280 142.25514280 142.25514280 142.25514280 142.25514280 142.25514280 142.25703690 142.25875420 142.26050347 142.26219361 142.26374272 142.26509769 142.26622450 142.26711514 142.26778314 142.26825634 142.26857143 142.26876799 142.26888229 142.26894277 142.26896833 142.26896833 142.26894277 142.26888229 142.26876799 142.26857143 142.26825634 142.26778314 142.26711514 142.26622450 142.26509769 142.26374272 142.26219361 142.26050347 142.25875420 142.25703690 142.25514280 142.25514280 142.25514280 142.25514280 142.25514280 142.25514280 142.25514280 142.25514280 142.25514280 142.25514280 142.25592723 142.25710242 142.25868510 142.26026480 142.26173505 142.26306310 142.26420526 142.26514766 142.26589552 142.26646367 142.26687699 142.26716606 142.26735949 142.26747815 142.26753455 142.26753455 142.26747815 142.26735949 142.26716606 142.26687699 142.26646367 142.26589552 142.26514766 142.26420526 142.26306310 142.26173505 142.26026480 142.25868510 142.25710242 142.25592723 142.25514280 142.25514280 142.25514280 142.25514280 142.25514280 142.25514280 142.25514280 142.25514280 142.25514280 142.25514280 142.25514280 142.25514280 142.25680918 142.25829024 142.25961879 142.26088436 142.26199776 142.26294892 142.26373913 142.26436626 142.26484434 142.26519905 142.26545442 142.26562224 142.26570563 142.26570563 142.26562224 142.26545442 142.26519905 142.26484434 142.26436626 142.26373913 142.26294892 142.26199776 142.26088436 142.25961879 142.25829024 142.25680918 142.25514280 142.25514280 142.25514280 142.25514280 142.25514280 142.25514280 142.25514280 142.25514280 142.25514280 142.25514280 142.25514280 142.25514280 142.25514280 142.25514280 142.25514280 142.25647119 142.25746834 142.25867421 142.25970396 142.26061675 142.26141220 142.26205439 142.26255147 142.26293541 142.26323436 142.26344476 142.26355267 142.26355267 142.26344476 142.26323436 142.26293541 142.26255147 142.26205439 142.26141220 142.26061675 142.25970396 142.25867421 142.25746834 142.25647119 142.25514280 142.25514280 142.25514280 142.25514280 142.25514280 142.25514280 142.25514280 142.25514280 142.25514280 142.25514280 142.25514280 142.25514280 142.25514280 142.25514280 142.25514280 142.25514280 142.25514280 142.25514280 142.25658995 142.25742266 142.25827208 142.25905234 142.25965410 142.26010633 142.26047220 142.26081048 142.26107163 142.26120697 142.26120697 142.26107163 142.26081048 142.26047220 142.26010633 142.25965410 142.25905234 142.25827208 142.25742266 142.25658995 142.25514280 142.25514280 142.25514280 142.25514280 142.25514280 142.25514280 142.25514280 142.25514280 142.25514280 142.25514280 142.25514280 142.25514280 142.25514280 142.25514280 142.25514280 142.25514280 142.25514280 142.25514280 142.25514280 142.25514280 142.25514280 142.25514280 142.25612441 142.25686156 142.25731271 142.25761715 142.25789215 142.25833403 142.25868913 142.25885950 142.25885950 142.25868913 142.25833403 142.25789215 142.25761715 142.25731271 142.25686156 142.25612441 142.25514280 142.25514280 142.25514280 142.25514280 142.25514280 142.25514280 142.25514280 142.25514280 142.25514280 142.25514280 142.25514280 142.25514280 142.25514280 142.25514280 142.25514280 142.25514280 142.25514280 142.25514280 142.25514280 142.25514280 142.25514280 142.25514280 142.25514280 142.25514280 142.25514280 142.25514280 142.25514280 142.25514280 142.25514280 142.25607860 142.25657889 142.25676093 142.25676093 142.25657889 142.25607860 142.25514280 142.25514280 142.25514280 142.25514280 142.25514280 142.25514280 142.25514280 142.25514280 142.25514280 142.25514280 142.25514280 142.25514280 142.25514280 142.25514280 142.25514280 142.25514280 142.25514280 142.25514280 142.25514280 142.25514280 142.25514280 142.25514280 142.25514280 142.25514280 142.25514280 142.25514280 142.25514280 142.25514280 142.25514280 142.25514280 142.25514280 142.25514280 142.25514280 142.25514280 142.25514280 142.25514280 142.25514280 142.25514280 142.25514280 142.25514280 142.25514280 142.25514280 142.25514280 142.25514280 142.25514280 142.25514280 142.25514280 142.25514280 142.25514280 142.25514280 142.25514280 142.25514280 142.25514280 142.25514280 142.25514280 142.25514280 142.25514280 142.25514280 142.25514280 142.25514280 142.25514280 142.25514280 142.25514280 142.25514280 142.25514280 142.25514280 142.25514280 142.25514280 142.25514280 142.25514280 142.25514280 142.25514280 142.25514280 142.25514280 142.25514280 142.25514280 142.25514280 142.25514280 142.25514280 142.25514280 142.25514280 142.25514280 142.25514280 142.25514280 142.25514280 142.25514280 142.25514280 142.25514280 142.25514280 142.25514280 142.25514280 142.25514280 142.25514280 142.25514280 142.25514280 142.25514280 142.25514280 142.25514280 142.25514280 142.25514280 142.25514280 142.25514280 142.25514280 142.25514280 142.25514280 142.25514280 142.25514280 142.25514280 142.25514280 142.25514280 142.25514280 142.25514280 142.25514280 142.25514280 142.25514280 142.25514280 142.25514280 142.25514280 142.25514280 142.25514280 142.25514280 142.25514280 142.25514280 142.25514280 142.25514280 142.25514280 142.25514280 142.25514280 142.25514280 142.25514280 142.25514280 142.25514280 142.25514280 142.25514280 142.25514280 142.25514280 142.25514280 142.25514280 142.25514280 142.25514280 142.25514280 142.25514280 142.25514280 142.25514280 142.25514280 142.25514280 142.25514280 142.25514280 142.25514280 142.25514280 142.25514280 142.25514280 142.25514280 142.25514280 142.25514280 142.25514280 142.25514280 142.25514280 142.25514280 142.25514280 142.25514280 142.25514280 142.25514280 142.25514280 142.25514280 142.25514280 142.25514280 142.25514280 142.25514280 142.25514280 142.25514280 142.25514280 142.25514280 142.25514280 142.25514280 142.25514280 142.25514280 142.25514280 142.25514280 142.25514280 142.25514280 142.25514280 142.25514280 142.25514280 142.25514280 142.25514280 142.25514280 142.25514280 142.25514280 142.25514280 142.25514280 142.25514280 142.25514280 142.25514280 142.25514280 142.25514280 142.25514280 142.25514280 142.25514280 142.25514280 142.25514280 142.25514280 142.25514280 142.25514280 142.25514280 142.25514280 142.25514280 142.25514280 142.25514280 142.25514280 142.25514280 142.25514280 142.25514280 142.25514280 142.25514280 142.25514280 142.25514280 142.25514280 142.25514280 142.25514280 142.25514280 142.25514280 142.25514280 142.25514280 142.25514280 142.25514280 142.25514280 142.25514280 142.25514280 142.25514280 142.25514280 142.25514280 142.25514280 142.25514280 142.25514280 142.25514280 142.25514280 142.25514280 142.25514280 142.25514280 142.25514280 142.25514280 142.25514280 142.25514280 142.25514280 142.25514280 142.25514280 142.25514280 142.25514280 142.25514280 142.25514280 142.25514280 142.25514280 142.25514280 142.25514280 142.25514280 142.25514280 142.25514280 142.25514280 142.25514280 142.25514280 142.25514280 142.25514280 142.25514280 142.25514280 142.25514280 142.25514280 142.25514280 142.25514280 142.25514280 142.25514280 142.25514280 142.25514280 142.25514280 142.25514280 142.25514280 142.25514280 142.25514280 142.25514280 142.25514280 142.25514280 142.25514280 142.25514280 142.25514280 142.25514280 142.25514280 142.25514280 142.25514280 142.25514280 142.25514280 142.25514280 142.25514280 142.25514280 142.25514280 142.25514280 142.25514280 142.25514280 142.25514280 142.25514280 142.25514280 142.25514280 142.25514280 142.25514280 142.25514280 142.25514280 142.25514280 142.25514280 142.25514280 142.25514280 142.25514280 142.25514280 142.25514280 142.25514280 142.25514280 142.25514280 142.25514280 142.25514280 142.25514280 142.25514280 142.25514280 142.25514280 142.25514280 142.25514280 142.25514280 142.25514280 142.25514280 142.25514280 142.25514280 142.25514280 142.25514280 142.25514280 142.25514280 142.25514280 142.25514280 142.25514280 142.25514280 142.25514280 