# vtk DataFile Version 3.0
VTK - Matlab export
ASCII
DATASET STRUCTURED_POINTS
DIMENSIONS 40 40 1
SPACING 1 1 1
ORIGIN 0 0 0
POINT_DATA 1600
SCALARS Proofstrength float 1
LOOKUP_TABLE default
142.25514280 142.25514280 142.25514280 142.25514280 142.25514280 142.25514280 142.25514280 142.25514280 142.25514280 142.25514280 142.25514280 142.25514280 142.25514280 142.25514280 142.25514280 142.25514280 142.25514280 142.25514280 142.25514280 142.25514280 142.25514280 142.25514280 142.25514280 142.25514280 142.25514280 142.25514280 142.25514280 142.25514280 142.25514280 142.25514280 142.25514280 142.25514280 142.25514280 142.25514280 142.25514280 142.25514280 142.25514280 142.25514280 142.25514280 142.25514280 142.25514280 142.25514280 142.25514280 142.25514280 142.25514280 142.25514280 142.25514280 142.25514280 142.25514280 142.25514280 142.25514280 142.25514280 142.25514280 142.25514280 142.25514280 142.25514280 142.25514280 142.25514280 142.25514280 142.25514280 142.25514280 142.25514280 142.25514280 142.25514280 142.25514280 142.25514280 142.25514280 142.25514280 142.25514280 142.25514280 142.25514280 142.25514280 142.25514280 142.25514280 142.25514280 142.25514280 142.25514280 142.25514280 142.25514280 142.25514280 142.25514280 142.25514280 142.25514280 142.25514280 142.25514280 142.25514280 142.25514280 142.25514280 142.25514280 142.25514280 142.25514280 142.25514280 142.25514280 142.25514280 142.25514280 142.25514280 142.25514280 142.25514280 142.25514280 142.25514280 142.25514280 142.25514280 142.25514280 142.25514280 142.25514280 142.25514280 142.25514280 142.25514280 142.25514280 142.25514280 142.25514280 142.25514280 142.25514280 142.25514280 142.25514280 142.25514280 142.25514280 142.25514280 142.25514280 142.25514280 142.25514280 142.25514280 142.25514280 142.25514280 142.25514280 142.25514280 142.25514280 142.25514280 142.25514280 142.25514280 142.25514280 142.25514280 142.25514280 142.25514280 142.25514280 142.25514280 142.25514280 142.25514280 142.25514280 142.25514280 142.25514280 142.25514280 142.25514280 142.25514280 142.25514280 142.25514280 142.25514280 142.25514280 142.25514280 142.25514280 142.25514280 142.25514280 142.25514280 142.25514280 142.25514280 142.25514280 142.25514280 142.25514280 142.25514280 142.25514280 142.25514280 142.25514280 142.25514280 142.25514280 142.25514280 142.25514280 142.25514280 142.25514280 142.25514280 142.25514280 142.25514280 142.25514280 142.25514280 142.25514280 142.25514280 142.25514280 142.25514280 142.25514280 142.25514280 142.25514280 142.25514280 142.25514280 142.25514280 142.25514280 142.25514280 142.25514280 142.25514280 142.25514280 142.25514280 142.25514280 142.25514280 142.25514280 142.25514280 142.25514280 142.25514280 142.25514280 142.25514280 142.25514280 142.25514280 142.25514280 142.25514280 142.25514280 142.25514280 142.25514280 142.25514280 142.25514280 142.25514280 142.25514280 142.25514280 142.25514280 142.25514280 142.25514280 142.25514280 142.25514280 142.25514280 142.25514280 142.25514280 142.25514280 142.25514280 142.25514280 142.25514280 142.25514280 142.25514280 142.25514280 142.25514280 142.25514280 142.25514280 142.25514280 142.25514280 142.25514280 142.25514280 142.25514280 142.25514280 142.25514280 142.25514280 142.25514280 142.25514280 142.25514280 142.25514280 142.25514280 142.25514280 142.25514280 142.25514280 142.25514280 142.25514280 142.25514280 142.25514280 142.25514280 142.25514280 142.25514280 142.25514280 142.25514280 142.25514280 142.25514280 142.25514280 142.25514280 142.25514280 142.25514280 142.25514280 142.25514280 142.25514280 142.25514280 142.25514280 142.25514280 142.25514280 142.25514280 142.25514280 142.25514280 142.25514280 142.25514280 142.25514280 142.25514280 142.25514280 142.25514280 142.25514280 142.25514280 142.25514280 142.25514280 142.25514280 142.25514280 142.25514280 142.25514280 142.25514280 142.25514280 142.25514280 142.25514280 142.25514280 142.25514280 142.25514280 142.25514280 142.25514280 142.25514280 142.25514280 142.25514280 142.25514280 142.25514280 142.25514280 142.25514280 142.25514280 142.25514280 142.25514280 142.25514280 142.25514280 142.25514280 142.25514280 142.25514280 142.25514280 142.25514280 142.25514280 142.25514280 142.25514280 142.25514280 142.25514280 142.25514280 142.25514280 142.25514280 142.25514280 142.25514280 142.25514280 142.25514280 142.25514280 142.25514280 142.25514280 142.25514280 142.25514280 142.25514280 142.25514280 142.25514280 142.25514280 142.25514280 142.25514280 142.25514280 142.25514280 142.25514280 142.25514280 142.25514280 142.25514280 142.26892709 142.27770143 142.28137074 142.28137074 142.27770143 142.26892709 142.25514280 142.25514280 142.25514280 142.25514280 142.25514280 142.25514280 142.25514280 142.25514280 142.25514280 142.25514280 142.25514280 142.25514280 142.25514280 142.25514280 142.25514280 142.25514280 142.25514280 142.25514280 142.25514280 142.25514280 142.25514280 142.25514280 142.25514280 142.25514280 142.25514280 142.25514280 142.25514280 142.25514280 142.25514280 142.26947212 142.28002553 142.28516327 142.28726962 142.28922061 142.29509880 142.30097841 142.30413072 142.30413072 142.30097841 142.29509880 142.28922061 142.28726962 142.28516327 142.28002553 142.26947212 142.25514280 142.25514280 142.25514280 142.25514280 142.25514280 142.25514280 142.25514280 142.25514280 142.25514280 142.25514280 142.25514280 142.25514280 142.25514280 142.25514280 142.25514280 142.25514280 142.25514280 142.25514280 142.25514280 142.25514280 142.25514280 142.25514280 142.27603315 142.28628808 142.29538988 142.30243468 142.30562499 142.30606189 142.30601689 142.30744713 142.30956752 142.31091509 142.31091509 142.30956752 142.30744713 142.30601689 142.30606189 142.30562499 142.30243468 142.29538988 142.28628808 142.27603315 142.25514280 142.25514280 142.25514280 142.25514280 142.25514280 142.25514280 142.25514280 142.25514280 142.25514280 142.25514280 142.25514280 142.25514280 142.25514280 142.25514280 142.25514280 142.25514280 142.25514280 142.25514280 142.27449018 142.28656905 142.29921127 142.30601675 142.30902865 142.30967553 142.30820054 142.30549683 142.30291840 142.30144179 142.30094452 142.30084290 142.30084290 142.30094452 142.30144179 142.30291840 142.30549683 142.30820054 142.30967553 142.30902865 142.30601675 142.29921127 142.28656905 142.27449018 142.25514280 142.25514280 142.25514280 142.25514280 142.25514280 142.25514280 142.25514280 142.25514280 142.25514280 142.25514280 142.25514280 142.25514280 142.25514280 142.25514280 142.25514280 142.27855326 142.29574984 142.30541282 142.30983911 142.30923799 142.30569707 142.30110726 142.29633764 142.29193360 142.28838775 142.28595972 142.28453699 142.28388099 142.28388099 142.28453699 142.28595972 142.28838775 142.29193360 142.29633764 142.30110726 142.30569707 142.30923799 142.30983911 142.30541282 142.29574984 142.27855326 142.25514280 142.25514280 142.25514280 142.25514280 142.25514280 142.25514280 142.25514280 142.25514280 142.25514280 142.25514280 142.25514280 142.25514280 142.26773375 142.28337887 142.29958864 142.30861654 142.30988673 142.30594015 142.29923010 142.29196795 142.28551699 142.28029543 142.27628148 142.27335921 142.27137788 142.27015878 142.26957094 142.26957094 142.27015878 142.27137788 142.27335921 142.27628148 142.28029543 142.28551699 142.29196795 142.29923010 142.30594015 142.30988673 142.30861654 142.29958864 142.28337887 142.26773375 142.25514280 142.25514280 142.25514280 142.25514280 142.25514280 142.25514280 142.25514280 142.25514280 142.25514280 142.25514280 142.28390554 142.30184794 142.31019423 142.30943392 142.30259655 142.29339153 142.28442960 142.27703685 142.27153957 142.26768256 142.26505044 142.26328751 142.26213692 142.26143186 142.26109023 142.26109023 142.26143186 142.26213692 142.26328751 142.26505044 142.26768256 142.27153957 142.27703685 142.28442960 142.29339153 142.30259655 142.30943392 142.31019423 142.30184794 142.28390554 142.25514280 142.25514280 142.25514280 142.25514280 142.25514280 142.25514280 142.25514280 142.25514280 142.25514280 142.27979422 142.30158172 142.31173808 142.31027527 142.30136266 142.28998950 142.27961007 142.27163887 142.26613813 142.26259255 142.26038788 142.25903004 142.25818896 142.25766499 142.25735007 142.25719847 142.25719847 142.25735007 142.25766499 142.25818896 142.25903004 142.26038788 142.26259255 142.26613813 142.27163887 142.27961007 142.28998950 142.30136266 142.31027527 142.31173808 142.30158172 142.27979422 142.25514280 142.25514280 142.25514280 142.25514280 142.25514280 142.25514280 142.25514280 142.27491956 142.29829919 142.31278446 142.31335752 142.30356419 142.29007627 142.27789565 142.26900313 142.26330867 142.25995272 142.25806758 142.25702706 142.25644775 142.25611604 142.25591968 142.25580471 142.25574999 142.25574999 142.25580471 142.25591968 142.25611604 142.25644775 142.25702706 142.25806758 142.25995272 142.26330867 142.26900313 142.27789565 142.29007627 142.30356419 142.31335752 142.31278446 142.29829919 142.27491956 142.25514280 142.25514280 142.25514280 142.25514280 142.25514280 142.25514280 142.28536251 142.30882726 142.31691342 142.30972408 142.29482058 142.28001474 142.26913470 142.26247924 142.25886927 142.25705222 142.25617007 142.25574218 142.25552846 142.25541594 142.25535293 142.25531714 142.25530035 142.25530035 142.25531714 142.25535293 142.25541594 142.25552846 142.25574218 142.25617007 142.25705222 142.25886927 142.26247924 142.26913470 142.28001474 142.29482058 142.30972408 142.31691342 142.30882726 142.28536251 142.25514280 142.25514280 142.25514280 142.25514280 142.25514280 142.25514280 142.29108080 142.31366616 142.31689262 142.30480294 142.28760931 142.27318013 142.26399339 142.25913012 142.25686576 142.25589445 142.25549260 142.25532458 142.25525059 142.25521519 142.25519653 142.25518626 142.25518150 142.25518150 142.25518626 142.25519653 142.25521519 142.25525059 142.25532458 142.25549260 142.25589445 142.25686576 142.25913012 142.26399339 142.27318013 142.28760931 142.30480294 142.31689262 142.31366616 142.29108080 142.25514280 142.25514280 142.25514280 142.25514280 142.25514280 142.26673449 142.29611640 142.31586856 142.31606292 142.30163905 142.28372240 142.26987278 142.26173326 142.25779457 142.25614442 142.25551901 142.25529388 142.25521235 142.25518083 142.25516720 142.25516042 142.25515675 142.25515506 142.25515506 142.25515675 142.25516042 142.25516720 142.25518083 142.25521235 142.25529388 142.25551901 142.25614442 142.25779457 142.26173326 142.26987278 142.28372240 142.30163905 142.31606292 142.31586856 142.29611640 142.26673449 142.25514280 142.25514280 142.25514280 142.25514280 142.26673449 142.29611640 142.31586856 142.31606292 142.30163905 142.28372240 142.26987278 142.26173326 142.25779457 142.25614442 142.25551901 142.25529388 142.25521235 142.25518083 142.25516720 142.25516042 142.25515675 142.25515506 142.25515506 142.25515675 142.25516042 142.25516720 142.25518083 142.25521235 142.25529388 142.25551901 142.25614442 142.25779457 142.26173326 142.26987278 142.28372240 142.30163905 142.31606292 142.31586856 142.29611640 142.26673449 142.25514280 142.25514280 142.25514280 142.25514280 142.25514280 142.29108080 142.31366616 142.31689262 142.30480294 142.28760931 142.27318013 142.26399339 142.25913012 142.25686576 142.25589445 142.25549260 142.25532458 142.25525059 142.25521519 142.25519653 142.25518626 142.25518150 142.25518150 142.25518626 142.25519653 142.25521519 142.25525059 142.25532458 142.25549260 142.25589445 142.25686576 142.25913012 142.26399339 142.27318013 142.28760931 142.30480294 142.31689262 142.31366616 142.29108080 142.25514280 142.25514280 142.25514280 142.25514280 142.25514280 142.25514280 142.28536251 142.30882726 142.31691342 142.30972408 142.29482058 142.28001474 142.26913470 142.26247924 142.25886927 142.25705222 142.25617007 142.25574218 142.25552846 142.25541594 142.25535293 142.25531714 142.25530035 142.25530035 142.25531714 142.25535293 142.25541594 142.25552846 142.25574218 142.25617007 142.25705222 142.25886927 142.26247924 142.26913470 142.28001474 142.29482058 142.30972408 142.31691342 142.30882726 142.28536251 142.25514280 142.25514280 142.25514280 142.25514280 142.25514280 142.25514280 142.27491956 142.29829919 142.31278446 142.31335752 142.30356419 142.29007627 142.27789565 142.26900313 142.26330867 142.25995272 142.25806758 142.25702706 142.25644775 142.25611604 142.25591968 142.25580471 142.25574999 142.25574999 142.25580471 142.25591968 142.25611604 142.25644775 142.25702706 142.25806758 142.25995272 142.26330867 142.26900313 142.27789565 142.29007627 142.30356419 142.31335752 142.31278446 142.29829919 142.27491956 142.25514280 142.25514280 142.25514280 142.25514280 142.25514280 142.25514280 142.25514280 142.27979422 142.30158172 142.31173808 142.31027527 142.30136266 142.28998950 142.27961007 142.27163887 142.26613813 142.26259255 142.26038788 142.25903004 142.25818896 142.25766499 142.25735007 142.25719847 142.25719847 142.25735007 142.25766499 142.25818896 142.25903004 142.26038788 142.26259255 142.26613813 142.27163887 142.27961007 142.28998950 142.30136266 142.31027527 142.31173808 142.30158172 142.27979422 142.25514280 142.25514280 142.25514280 142.25514280 142.25514280 142.25514280 142.25514280 142.25514280 142.25514280 142.28390554 142.30184794 142.31019423 142.30943392 142.30259655 142.29339153 142.28442960 142.27703685 142.27153957 142.26768256 142.26505044 142.26328751 142.26213692 142.26143186 142.26109023 142.26109023 142.26143186 142.26213692 142.26328751 142.26505044 142.26768256 142.27153957 142.27703685 142.28442960 142.29339153 142.30259655 142.30943392 142.31019423 142.30184794 142.28390554 142.25514280 142.25514280 142.25514280 142.25514280 142.25514280 142.25514280 142.25514280 142.25514280 142.25514280 142.25514280 142.26773375 142.28337887 142.29958864 142.30861654 142.30988673 142.30594015 142.29923010 142.29196795 142.28551699 142.28029543 142.27628148 142.27335921 142.27137788 142.27015878 142.26957094 142.26957094 142.27015878 142.27137788 142.27335921 142.27628148 142.28029543 142.28551699 142.29196795 142.29923010 142.30594015 142.30988673 142.30861654 142.29958864 142.28337887 142.26773375 142.25514280 142.25514280 142.25514280 142.25514280 142.25514280 142.25514280 142.25514280 142.25514280 142.25514280 142.25514280 142.25514280 142.25514280 142.27855326 142.29574984 142.30541282 142.30983911 142.30923799 142.30569707 142.30110726 142.29633764 142.29193360 142.28838775 142.28595972 142.28453699 142.28388099 142.28388099 142.28453699 142.28595972 142.28838775 142.29193360 142.29633764 142.30110726 142.30569707 142.30923799 142.30983911 142.30541282 142.29574984 142.27855326 142.25514280 142.25514280 142.25514280 142.25514280 142.25514280 142.25514280 142.25514280 142.25514280 142.25514280 142.25514280 142.25514280 142.25514280 142.25514280 142.25514280 142.25514280 142.27449018 142.28656905 142.29921127 142.30601675 142.30902865 142.30967553 142.30820054 142.30549683 142.30291840 142.30144179 142.30094452 142.30084290 142.30084290 142.30094452 142.30144179 142.30291840 142.30549683 142.30820054 142.30967553 142.30902865 142.30601675 142.29921127 142.28656905 142.27449018 142.25514280 142.25514280 142.25514280 142.25514280 142.25514280 142.25514280 142.25514280 142.25514280 142.25514280 142.25514280 142.25514280 142.25514280 142.25514280 142.25514280 142.25514280 142.25514280 142.25514280 142.25514280 142.27603315 142.28628808 142.29538988 142.30243468 142.30562499 142.30606189 142.30601689 142.30744713 142.30956752 142.31091509 142.31091509 142.30956752 142.30744713 142.30601689 142.30606189 142.30562499 142.30243468 142.29538988 142.28628808 142.27603315 142.25514280 142.25514280 142.25514280 142.25514280 142.25514280 142.25514280 142.25514280 142.25514280 142.25514280 142.25514280 142.25514280 142.25514280 142.25514280 142.25514280 142.25514280 142.25514280 142.25514280 142.25514280 142.25514280 142.25514280 142.25514280 142.25514280 142.26947212 142.28002553 142.28516327 142.28726962 142.28922061 142.29509880 142.30097841 142.30413072 142.30413072 142.30097841 142.29509880 142.28922061 142.28726962 142.28516327 142.28002553 142.26947212 142.25514280 142.25514280 142.25514280 142.25514280 142.25514280 142.25514280 142.25514280 142.25514280 142.25514280 142.25514280 142.25514280 142.25514280 142.25514280 142.25514280 142.25514280 142.25514280 142.25514280 142.25514280 142.25514280 142.25514280 142.25514280 142.25514280 142.25514280 142.25514280 142.25514280 142.25514280 142.25514280 142.25514280 142.25514280 142.26892709 142.27770143 142.28137074 142.28137074 142.27770143 142.26892709 142.25514280 142.25514280 142.25514280 142.25514280 142.25514280 142.25514280 142.25514280 142.25514280 142.25514280 142.25514280 142.25514280 142.25514280 142.25514280 142.25514280 142.25514280 142.25514280 142.25514280 142.25514280 142.25514280 142.25514280 142.25514280 142.25514280 142.25514280 142.25514280 142.25514280 142.25514280 142.25514280 142.25514280 142.25514280 142.25514280 142.25514280 142.25514280 142.25514280 142.25514280 142.25514280 142.25514280 142.25514280 142.25514280 142.25514280 142.25514280 142.25514280 142.25514280 142.25514280 142.25514280 142.25514280 142.25514280 142.25514280 142.25514280 142.25514280 142.25514280 142.25514280 142.25514280 142.25514280 142.25514280 142.25514280 142.25514280 142.25514280 142.25514280 142.25514280 142.25514280 142.25514280 142.25514280 142.25514280 142.25514280 142.25514280 142.25514280 142.25514280 142.25514280 142.25514280 142.25514280 142.25514280 142.25514280 142.25514280 142.25514280 142.25514280 142.25514280 142.25514280 142.25514280 142.25514280 142.25514280 142.25514280 142.25514280 142.25514280 142.25514280 142.25514280 142.25514280 142.25514280 142.25514280 142.25514280 142.25514280 142.25514280 142.25514280 142.25514280 142.25514280 142.25514280 142.25514280 142.25514280 142.25514280 142.25514280 142.25514280 142.25514280 142.25514280 142.25514280 142.25514280 142.25514280 142.25514280 142.25514280 142.25514280 142.25514280 142.25514280 142.25514280 142.25514280 142.25514280 142.25514280 142.25514280 142.25514280 142.25514280 142.25514280 142.25514280 142.25514280 142.25514280 142.25514280 142.25514280 142.25514280 142.25514280 142.25514280 142.25514280 142.25514280 142.25514280 142.25514280 142.25514280 142.25514280 142.25514280 142.25514280 142.25514280 142.25514280 142.25514280 142.25514280 142.25514280 142.25514280 142.25514280 142.25514280 142.25514280 142.25514280 142.25514280 142.25514280 142.25514280 142.25514280 142.25514280 142.25514280 142.25514280 142.25514280 142.25514280 142.25514280 142.25514280 142.25514280 142.25514280 142.25514280 142.25514280 142.25514280 142.25514280 142.25514280 142.25514280 142.25514280 142.25514280 142.25514280 142.25514280 142.25514280 142.25514280 142.25514280 142.25514280 142.25514280 142.25514280 142.25514280 142.25514280 142.25514280 142.25514280 142.25514280 142.25514280 142.25514280 142.25514280 142.25514280 142.25514280 142.25514280 142.25514280 142.25514280 142.25514280 142.25514280 142.25514280 142.25514280 142.25514280 142.25514280 142.25514280 142.25514280 142.25514280 142.25514280 142.25514280 142.25514280 142.25514280 142.25514280 142.25514280 142.25514280 142.25514280 142.25514280 142.25514280 142.25514280 142.25514280 142.25514280 142.25514280 142.25514280 142.25514280 142.25514280 142.25514280 142.25514280 142.25514280 142.25514280 142.25514280 142.25514280 142.25514280 142.25514280 142.25514280 142.25514280 142.25514280 142.25514280 142.25514280 142.25514280 142.25514280 142.25514280 142.25514280 142.25514280 142.25514280 142.25514280 142.25514280 142.25514280 142.25514280 142.25514280 142.25514280 142.25514280 142.25514280 142.25514280 142.25514280 142.25514280 142.25514280 142.25514280 142.25514280 142.25514280 142.25514280 142.25514280 142.25514280 142.25514280 142.25514280 142.25514280 142.25514280 142.25514280 142.25514280 142.25514280 142.25514280 142.25514280 142.25514280 142.25514280 142.25514280 142.25514280 142.25514280 142.25514280 142.25514280 142.25514280 142.25514280 142.25514280 142.25514280 142.25514280 142.25514280 142.25514280 142.25514280 142.25514280 142.25514280 142.25514280 142.25514280 142.25514280 142.25514280 142.25514280 142.25514280 142.25514280 142.25514280 142.25514280 142.25514280 142.25514280 142.25514280 142.25514280 142.25514280 142.25514280 142.25514280 142.25514280 142.25514280 142.25514280 142.25514280 142.25514280 142.25514280 142.25514280 142.25514280 142.25514280 142.25514280 142.25514280 142.25514280 142.25514280 142.25514280 142.25514280 142.25514280 142.25514280 142.25514280 142.25514280 142.25514280 142.25514280 142.25514280 142.25514280 142.25514280 142.25514280 142.25514280 142.25514280 142.25514280 142.25514280 142.25514280 142.25514280 142.25514280 142.25514280 142.25514280 142.25514280 142.25514280 142.25514280 142.25514280 142.25514280 142.25514280 142.25514280 142.25514280 142.25514280 142.25514280 142.25514280 142.25514280 