# vtk DataFile Version 3.0
VTK - Matlab export
ASCII
DATASET STRUCTURED_POINTS
DIMENSIONS 40 40 1
SPACING 1 1 1
ORIGIN 0 0 0
POINT_DATA 1600
SCALARS lambda-2 float 1
LOOKUP_TABLE default
7.22156776 7.22156776 7.22156776 7.22156776 7.22156776 7.22156776 7.22156776 7.22156776 7.22156776 7.22156776 7.22156776 7.22156776 7.22156776 7.22156776 7.22156776 7.22156776 7.22156776 7.22156776 7.22156776 7.22156776 7.22156776 7.22156776 7.22156776 7.22156776 7.22156776 7.22156776 7.22156776 7.22156776 7.22156776 7.22156776 7.22156776 7.22156776 7.22156776 7.22156776 7.22156776 7.22156776 7.22156776 7.22156776 7.22156776 7.22156776 7.22156776 7.22156776 7.22156776 7.22156776 7.22156776 7.22156776 7.22156776 7.22156776 7.22156776 7.22156776 7.22156776 7.22156776 7.22156776 7.22156776 7.22156776 7.22156776 7.22156776 7.22156776 7.22156776 7.22156776 7.22156776 7.22156776 7.22156776 7.22156776 7.22156776 7.22156776 7.22156776 7.22156776 7.22156776 7.22156776 7.22156776 7.22156776 7.22156776 7.22156776 7.22156776 7.22156776 7.22156776 7.22156776 7.22156776 7.22156776 7.22156776 7.22156776 7.22156776 7.22156776 7.22156776 7.22156776 7.22156776 7.22156776 7.22156776 7.22156776 7.22156776 7.22156776 7.22156776 7.22156776 7.22156776 7.22156776 7.22156776 7.22156776 7.22156776 7.22156776 7.22156776 7.22156776 7.22156776 7.22156776 7.22156776 7.22156776 7.22156776 7.22156776 7.22156776 7.22156776 7.22156776 7.22156776 7.22156776 7.22156776 7.22156776 7.22156776 7.22156776 7.22156776 7.22156776 7.22156776 7.22156776 7.22156776 7.22156776 7.22156776 7.22156776 7.22156776 7.22156776 7.22156776 7.22156776 7.22156776 7.22156776 7.22156776 7.22156776 7.22156776 7.22156776 7.22156776 7.22156776 7.22156776 7.22156776 7.22156776 7.22156776 7.22156776 7.22156776 7.22156776 7.22156776 7.22156776 7.22156776 7.22156776 7.22156776 7.22156776 7.22156776 7.22156776 7.22156776 7.22156776 7.22156776 7.22156776 7.22156776 7.22156776 7.22156776 7.22156776 7.22156776 7.22156776 7.22156776 7.22156776 7.22156776 7.22156776 7.22156776 7.22156776 7.22156776 7.22156776 7.22156776 7.22156776 7.22156776 7.22156776 7.22156776 7.22156776 7.22156776 7.22156776 7.22156776 7.22156776 7.22156776 7.22156776 7.22156776 7.22156776 7.22156776 7.22156776 7.22156776 7.22156776 7.22156776 7.22156776 7.22156776 7.22156776 7.22156776 7.22156776 7.22156776 7.22156776 7.22156776 7.22156776 7.22156776 7.22156776 7.22156776 7.22156776 7.22156776 7.22156776 7.22156776 7.22156776 7.22156776 7.22156776 7.22156776 7.22156776 7.22156776 7.22156776 7.22156776 7.22156776 7.22156776 7.22156776 7.22156776 7.22156776 7.22156776 7.22156776 7.22156776 7.22156776 7.22156776 7.22156776 7.22156776 7.22156776 7.22156776 7.22156776 7.22156776 7.22156776 7.22156776 7.22156776 7.22156776 7.22156776 7.22156776 7.22156776 7.22156776 7.22156776 7.22156776 7.22156776 7.22156776 7.22156776 7.22156776 7.22156776 7.22156776 7.22156776 7.22156776 7.22156776 7.22156776 7.22156776 7.22156776 7.22156776 7.22156776 7.22156776 7.22156776 7.22156776 7.22156776 7.22156776 7.22156776 7.22156776 7.22156776 7.22156776 7.22156776 7.22156776 7.22156776 7.22156776 7.22156776 7.22156776 7.22156776 7.22156776 7.22156776 7.22156776 7.22156776 7.22156776 7.22156776 7.22156776 7.22156776 7.22156776 7.22156776 7.22156776 7.22156776 7.22156776 7.22156776 7.22156776 7.22156776 7.22156776 7.22156776 7.22156776 7.22156776 7.22156776 7.22156776 7.22156776 7.22156776 7.22156776 7.22156776 7.22156776 7.22156776 7.22156776 7.22156776 7.22156776 7.22156776 7.22156776 7.22156776 7.22156776 7.22156776 7.22156776 7.22156776 7.22156776 7.22156776 7.22156776 7.22156776 7.22156776 7.22156776 7.22156776 7.22156776 7.22156776 7.22156776 7.22156776 7.22156776 7.22156776 7.22156776 7.22156776 7.22156776 7.22156776 7.22156776 7.22156776 7.22156776 7.22156776 7.22156776 7.22156776 7.22156776 7.22156776 7.22156776 7.22156776 7.22156776 7.22156776 7.22156776 7.21939258 7.21818411 7.21773187 7.21773187 7.21818411 7.21939258 7.22156776 7.22156776 7.22156776 7.22156776 7.22156776 7.22156776 7.22156776 7.22156776 7.22156776 7.22156776 7.22156776 7.22156776 7.22156776 7.22156776 7.22156776 7.22156776 7.22156776 7.22156776 7.22156776 7.22156776 7.22156776 7.22156776 7.22156776 7.22156776 7.22156776 7.22156776 7.22156776 7.22156776 7.22156776 7.21927135 7.21756475 7.21657806 7.21596754 7.21541772 7.21442727 7.21359559 7.21318871 7.21318871 7.21359559 7.21442727 7.21541772 7.21596754 7.21657806 7.21756475 7.21927135 7.22156776 7.22156776 7.22156776 7.22156776 7.22156776 7.22156776 7.22156776 7.22156776 7.22156776 7.22156776 7.22156776 7.22156776 7.22156776 7.22156776 7.22156776 7.22156776 7.22156776 7.22156776 7.22156776 7.22156776 7.22156776 7.22156776 7.21816394 7.21629667 7.21446675 7.21286341 7.21174120 7.21099523 7.21042047 7.20983194 7.20933942 7.20907577 7.20907577 7.20933942 7.20983194 7.21042047 7.21099523 7.21174120 7.21286341 7.21446675 7.21629667 7.21816394 7.22156776 7.22156776 7.22156776 7.22156776 7.22156776 7.22156776 7.22156776 7.22156776 7.22156776 7.22156776 7.22156776 7.22156776 7.22156776 7.22156776 7.22156776 7.22156776 7.22156776 7.22156776 7.21838152 7.21613383 7.21353644 7.21153626 7.20995415 7.20873275 7.20790497 7.20739081 7.20705244 7.20677818 7.20656204 7.20644358 7.20644358 7.20656204 7.20677818 7.20705244 7.20739081 7.20790497 7.20873275 7.20995415 7.21153626 7.21353644 7.21613383 7.21838152 7.22156776 7.22156776 7.22156776 7.22156776 7.22156776 7.22156776 7.22156776 7.22156776 7.22156776 7.22156776 7.22156776 7.22156776 7.22156776 7.22156776 7.22156776 7.21753016 7.21418690 7.21153284 7.20932910 7.20773493 7.20667583 7.20603936 7.20573710 7.20565964 7.20568935 7.20573678 7.20576648 7.20577856 7.20577856 7.20576648 7.20573678 7.20568935 7.20565964 7.20573710 7.20603936 7.20667583 7.20773493 7.20932910 7.21153284 7.21418690 7.21753016 7.22156776 7.22156776 7.22156776 7.22156776 7.22156776 7.22156776 7.22156776 7.22156776 7.22156776 7.22156776 7.22156776 7.22156776 7.21952401 7.21665802 7.21311791 7.21006113 7.20776553 7.20621307 7.20535394 7.20504578 7.20511927 7.20542511 7.20583480 7.20624384 7.20658099 7.20681176 7.20692717 7.20692717 7.20681176 7.20658099 7.20624384 7.20583480 7.20542511 7.20511927 7.20504578 7.20535394 7.20621307 7.20776553 7.21006113 7.21311791 7.21665802 7.21952401 7.22156776 7.22156776 7.22156776 7.22156776 7.22156776 7.22156776 7.22156776 7.22156776 7.22156776 7.22156776 7.21662833 7.21262655 7.20921657 7.20668397 7.20513300 7.20447267 7.20451634 7.20503356 7.20580675 7.20666463 7.20748535 7.20818935 7.20873190 7.20909484 7.20927543 7.20927543 7.20909484 7.20873190 7.20818935 7.20748535 7.20666463 7.20580675 7.20503356 7.20451634 7.20447267 7.20513300 7.20668397 7.20921657 7.21262655 7.21662833 7.22156776 7.22156776 7.22156776 7.22156776 7.22156776 7.22156776 7.22156776 7.22156776 7.22156776 7.21752640 7.21301518 7.20906751 7.20610065 7.20432828 7.20371547 7.20403559 7.20497884 7.20624177 7.20758320 7.20884209 7.20992716 7.21079646 7.21143855 7.21185798 7.21206430 7.21206430 7.21185798 7.21143855 7.21079646 7.20992716 7.20884209 7.20758320 7.20624177 7.20497884 7.20403559 7.20371547 7.20432828 7.20610065 7.20906751 7.21301518 7.21752640 7.22156776 7.22156776 7.22156776 7.22156776 7.22156776 7.22156776 7.22156776 7.21859543 7.21430815 7.20987970 7.20623642 7.20388938 7.20297609 7.20331840 7.20454801 7.20625263 7.20808374 7.20980439 7.21128703 7.21248479 7.21339829 7.21404951 7.21446512 7.21466694 7.21466694 7.21446512 7.21404951 7.21339829 7.21248479 7.21128703 7.20980439 7.20808374 7.20625263 7.20454801 7.20331840 7.20297609 7.20388938 7.20623642 7.20987970 7.21430815 7.21859543 7.22156776 7.22156776 7.22156776 7.22156776 7.22156776 7.22156776 7.21690718 7.21201104 7.20754402 7.20423777 7.20251703 7.20239939 7.20356381 7.20551880 7.20777868 7.20997704 7.21190011 7.21346337 7.21466557 7.21554572 7.21615341 7.21653257 7.21671425 7.21671425 7.21653257 7.21615341 7.21554572 7.21466557 7.21346337 7.21190011 7.20997704 7.20777868 7.20551880 7.20356381 7.20239939 7.20251703 7.20423777 7.20754402 7.21201104 7.21690718 7.22156776 7.22156776 7.22156776 7.22156776 7.22156776 7.22156776 7.21583266 7.21051195 7.20603074 7.20301187 7.20178987 7.20227292 7.20402597 7.20646920 7.20907299 7.21147011 7.21347422 7.21503880 7.21619862 7.21702061 7.21757311 7.21791100 7.21807093 7.21807093 7.21791100 7.21757311 7.21702061 7.21619862 7.21503880 7.21347422 7.21147011 7.20907299 7.20646920 7.20402597 7.20227292 7.20178987 7.20301187 7.20603074 7.21051195 7.21583266 7.22156776 7.22156776 7.22156776 7.22156776 7.22156776 7.21982831 7.21494919 7.20970097 7.20528063 7.20243862 7.20149344 7.20229735 7.20435414 7.20703886 7.20980233 7.21228110 7.21430652 7.21585398 7.21697780 7.21775936 7.21827618 7.21858832 7.21873491 7.21873491 7.21858832 7.21827618 7.21775936 7.21697780 7.21585398 7.21430652 7.21228110 7.20980233 7.20703886 7.20435414 7.20229735 7.20149344 7.20243862 7.20528063 7.20970097 7.21494919 7.21982831 7.22156776 7.22156776 7.22156776 7.22156776 7.21982831 7.21494919 7.20970097 7.20528063 7.20243862 7.20149344 7.20229735 7.20435414 7.20703886 7.20980233 7.21228110 7.21430652 7.21585398 7.21697780 7.21775936 7.21827618 7.21858832 7.21873491 7.21873491 7.21858832 7.21827618 7.21775936 7.21697780 7.21585398 7.21430652 7.21228110 7.20980233 7.20703886 7.20435414 7.20229735 7.20149344 7.20243862 7.20528063 7.20970097 7.21494919 7.21982831 7.22156776 7.22156776 7.22156776 7.22156776 7.22156776 7.21583266 7.21051195 7.20603074 7.20301187 7.20178987 7.20227292 7.20402597 7.20646920 7.20907299 7.21147011 7.21347422 7.21503880 7.21619862 7.21702061 7.21757311 7.21791100 7.21807093 7.21807093 7.21791100 7.21757311 7.21702061 7.21619862 7.21503880 7.21347422 7.21147011 7.20907299 7.20646920 7.20402597 7.20227292 7.20178987 7.20301187 7.20603074 7.21051195 7.21583266 7.22156776 7.22156776 7.22156776 7.22156776 7.22156776 7.22156776 7.21690718 7.21201104 7.20754402 7.20423777 7.20251703 7.20239939 7.20356381 7.20551880 7.20777868 7.20997704 7.21190011 7.21346337 7.21466557 7.21554572 7.21615341 7.21653257 7.21671425 7.21671425 7.21653257 7.21615341 7.21554572 7.21466557 7.21346337 7.21190011 7.20997704 7.20777868 7.20551880 7.20356381 7.20239939 7.20251703 7.20423777 7.20754402 7.21201104 7.21690718 7.22156776 7.22156776 7.22156776 7.22156776 7.22156776 7.22156776 7.21859543 7.21430815 7.20987970 7.20623642 7.20388938 7.20297609 7.20331840 7.20454801 7.20625263 7.20808374 7.20980439 7.21128703 7.21248479 7.21339829 7.21404951 7.21446512 7.21466694 7.21466694 7.21446512 7.21404951 7.21339829 7.21248479 7.21128703 7.20980439 7.20808374 7.20625263 7.20454801 7.20331840 7.20297609 7.20388938 7.20623642 7.20987970 7.21430815 7.21859543 7.22156776 7.22156776 7.22156776 7.22156776 7.22156776 7.22156776 7.22156776 7.21752640 7.21301518 7.20906751 7.20610065 7.20432828 7.20371547 7.20403559 7.20497884 7.20624177 7.20758320 7.20884209 7.20992716 7.21079646 7.21143855 7.21185798 7.21206430 7.21206430 7.21185798 7.21143855 7.21079646 7.20992716 7.20884209 7.20758320 7.20624177 7.20497884 7.20403559 7.20371547 7.20432828 7.20610065 7.20906751 7.21301518 7.21752640 7.22156776 7.22156776 7.22156776 7.22156776 7.22156776 7.22156776 7.22156776 7.22156776 7.22156776 7.21662833 7.21262655 7.20921657 7.20668397 7.20513300 7.20447267 7.20451634 7.20503356 7.20580675 7.20666463 7.20748535 7.20818935 7.20873190 7.20909484 7.20927543 7.20927543 7.20909484 7.20873190 7.20818935 7.20748535 7.20666463 7.20580675 7.20503356 7.20451634 7.20447267 7.20513300 7.20668397 7.20921657 7.21262655 7.21662833 7.22156776 7.22156776 7.22156776 7.22156776 7.22156776 7.22156776 7.22156776 7.22156776 7.22156776 7.22156776 7.21952401 7.21665802 7.21311791 7.21006113 7.20776553 7.20621307 7.20535394 7.20504578 7.20511927 7.20542511 7.20583480 7.20624384 7.20658099 7.20681176 7.20692717 7.20692717 7.20681176 7.20658099 7.20624384 7.20583480 7.20542511 7.20511927 7.20504578 7.20535394 7.20621307 7.20776553 7.21006113 7.21311791 7.21665802 7.21952401 7.22156776 7.22156776 7.22156776 7.22156776 7.22156776 7.22156776 7.22156776 7.22156776 7.22156776 7.22156776 7.22156776 7.22156776 7.21753016 7.21418690 7.21153284 7.20932910 7.20773493 7.20667583 7.20603936 7.20573710 7.20565964 7.20568935 7.20573678 7.20576648 7.20577856 7.20577856 7.20576648 7.20573678 7.20568935 7.20565964 7.20573710 7.20603936 7.20667583 7.20773493 7.20932910 7.21153284 7.21418690 7.21753016 7.22156776 7.22156776 7.22156776 7.22156776 7.22156776 7.22156776 7.22156776 7.22156776 7.22156776 7.22156776 7.22156776 7.22156776 7.22156776 7.22156776 7.22156776 7.21838152 7.21613383 7.21353644 7.21153626 7.20995415 7.20873275 7.20790497 7.20739081 7.20705244 7.20677818 7.20656204 7.20644358 7.20644358 7.20656204 7.20677818 7.20705244 7.20739081 7.20790497 7.20873275 7.20995415 7.21153626 7.21353644 7.21613383 7.21838152 7.22156776 7.22156776 7.22156776 7.22156776 7.22156776 7.22156776 7.22156776 7.22156776 7.22156776 7.22156776 7.22156776 7.22156776 7.22156776 7.22156776 7.22156776 7.22156776 7.22156776 7.22156776 7.21816394 7.21629667 7.21446675 7.21286341 7.21174120 7.21099523 7.21042047 7.20983194 7.20933942 7.20907577 7.20907577 7.20933942 7.20983194 7.21042047 7.21099523 7.21174120 7.21286341 7.21446675 7.21629667 7.21816394 7.22156776 7.22156776 7.22156776 7.22156776 7.22156776 7.22156776 7.22156776 7.22156776 7.22156776 7.22156776 7.22156776 7.22156776 7.22156776 7.22156776 7.22156776 7.22156776 7.22156776 7.22156776 7.22156776 7.22156776 7.22156776 7.22156776 7.21927135 7.21756475 7.21657806 7.21596754 7.21541772 7.21442727 7.21359559 7.21318871 7.21318871 7.21359559 7.21442727 7.21541772 7.21596754 7.21657806 7.21756475 7.21927135 7.22156776 7.22156776 7.22156776 7.22156776 7.22156776 7.22156776 7.22156776 7.22156776 7.22156776 7.22156776 7.22156776 7.22156776 7.22156776 7.22156776 7.22156776 7.22156776 7.22156776 7.22156776 7.22156776 7.22156776 7.22156776 7.22156776 7.22156776 7.22156776 7.22156776 7.22156776 7.22156776 7.22156776 7.22156776 7.21939258 7.21818411 7.21773187 7.21773187 7.21818411 7.21939258 7.22156776 7.22156776 7.22156776 7.22156776 7.22156776 7.22156776 7.22156776 7.22156776 7.22156776 7.22156776 7.22156776 7.22156776 7.22156776 7.22156776 7.22156776 7.22156776 7.22156776 7.22156776 7.22156776 7.22156776 7.22156776 7.22156776 7.22156776 7.22156776 7.22156776 7.22156776 7.22156776 7.22156776 7.22156776 7.22156776 7.22156776 7.22156776 7.22156776 7.22156776 7.22156776 7.22156776 7.22156776 7.22156776 7.22156776 7.22156776 7.22156776 7.22156776 7.22156776 7.22156776 7.22156776 7.22156776 7.22156776 7.22156776 7.22156776 7.22156776 7.22156776 7.22156776 7.22156776 7.22156776 7.22156776 7.22156776 7.22156776 7.22156776 7.22156776 7.22156776 7.22156776 7.22156776 7.22156776 7.22156776 7.22156776 7.22156776 7.22156776 7.22156776 7.22156776 7.22156776 7.22156776 7.22156776 7.22156776 7.22156776 7.22156776 7.22156776 7.22156776 7.22156776 7.22156776 7.22156776 7.22156776 7.22156776 7.22156776 7.22156776 7.22156776 7.22156776 7.22156776 7.22156776 7.22156776 7.22156776 7.22156776 7.22156776 7.22156776 7.22156776 7.22156776 7.22156776 7.22156776 7.22156776 7.22156776 7.22156776 7.22156776 7.22156776 7.22156776 7.22156776 7.22156776 7.22156776 7.22156776 7.22156776 7.22156776 7.22156776 7.22156776 7.22156776 7.22156776 7.22156776 7.22156776 7.22156776 7.22156776 7.22156776 7.22156776 7.22156776 7.22156776 7.22156776 7.22156776 7.22156776 7.22156776 7.22156776 7.22156776 7.22156776 7.22156776 7.22156776 7.22156776 7.22156776 7.22156776 7.22156776 7.22156776 7.22156776 7.22156776 7.22156776 7.22156776 7.22156776 7.22156776 7.22156776 7.22156776 7.22156776 7.22156776 7.22156776 7.22156776 7.22156776 7.22156776 7.22156776 7.22156776 7.22156776 7.22156776 7.22156776 7.22156776 7.22156776 7.22156776 7.22156776 7.22156776 7.22156776 7.22156776 7.22156776 7.22156776 7.22156776 7.22156776 7.22156776 7.22156776 7.22156776 7.22156776 7.22156776 7.22156776 7.22156776 7.22156776 7.22156776 7.22156776 7.22156776 7.22156776 7.22156776 7.22156776 7.22156776 7.22156776 7.22156776 7.22156776 7.22156776 7.22156776 7.22156776 7.22156776 7.22156776 7.22156776 7.22156776 7.22156776 7.22156776 7.22156776 7.22156776 7.22156776 7.22156776 7.22156776 7.22156776 7.22156776 7.22156776 7.22156776 7.22156776 7.22156776 7.22156776 7.22156776 7.22156776 7.22156776 7.22156776 7.22156776 7.22156776 7.22156776 7.22156776 7.22156776 7.22156776 7.22156776 7.22156776 7.22156776 7.22156776 7.22156776 7.22156776 7.22156776 7.22156776 7.22156776 7.22156776 7.22156776 7.22156776 7.22156776 7.22156776 7.22156776 7.22156776 7.22156776 7.22156776 7.22156776 7.22156776 7.22156776 7.22156776 7.22156776 7.22156776 7.22156776 7.22156776 7.22156776 7.22156776 7.22156776 7.22156776 7.22156776 7.22156776 7.22156776 7.22156776 7.22156776 7.22156776 7.22156776 7.22156776 7.22156776 7.22156776 7.22156776 7.22156776 7.22156776 7.22156776 7.22156776 7.22156776 7.22156776 7.22156776 7.22156776 7.22156776 7.22156776 7.22156776 7.22156776 7.22156776 7.22156776 7.22156776 7.22156776 7.22156776 7.22156776 7.22156776 7.22156776 7.22156776 7.22156776 7.22156776 7.22156776 7.22156776 7.22156776 7.22156776 7.22156776 7.22156776 7.22156776 7.22156776 7.22156776 7.22156776 7.22156776 7.22156776 7.22156776 7.22156776 7.22156776 7.22156776 7.22156776 7.22156776 7.22156776 7.22156776 7.22156776 7.22156776 7.22156776 7.22156776 7.22156776 7.22156776 7.22156776 7.22156776 7.22156776 7.22156776 7.22156776 7.22156776 7.22156776 7.22156776 7.22156776 7.22156776 7.22156776 7.22156776 7.22156776 7.22156776 7.22156776 7.22156776 7.22156776 7.22156776 7.22156776 7.22156776 7.22156776 7.22156776 7.22156776 7.22156776 7.22156776 7.22156776 7.22156776 7.22156776 7.22156776 7.22156776 7.22156776 7.22156776 7.22156776 