# vtk DataFile Version 3.0
VTK - Matlab export
ASCII
DATASET STRUCTURED_POINTS
DIMENSIONS 40 40 1
SPACING 1 1 1
ORIGIN 0 0 0
POINT_DATA 1600
SCALARS lambda-2 float 1
LOOKUP_TABLE default
7.22156776 7.22156776 7.22156776 7.22156776 7.22156776 7.22156776 7.22156776 7.22156776 7.22156776 7.22156776 7.22156776 7.22156776 7.22156776 7.22156776 7.22156776 7.22156776 7.22156776 7.22156776 7.22156776 7.22156776 7.22156776 7.22156776 7.22156776 7.22156776 7.22156776 7.22156776 7.22156776 7.22156776 7.22156776 7.22156776 7.22156776 7.22156776 7.22156776 7.22156776 7.22156776 7.22156776 7.22156776 7.22156776 7.22156776 7.22156776 7.22156776 7.22156776 7.22156776 7.22156776 7.22156776 7.22156776 7.22156776 7.22156776 7.22156776 7.22156776 7.22156776 7.22156776 7.22156776 7.22156776 7.22156776 7.22156776 7.22156776 7.22156776 7.22156776 7.22156776 7.22156776 7.22156776 7.22156776 7.22156776 7.22156776 7.22156776 7.22156776 7.22156776 7.22156776 7.22156776 7.22156776 7.22156776 7.22156776 7.22156776 7.22156776 7.22156776 7.22156776 7.22156776 7.22156776 7.22156776 7.22156776 7.22156776 7.22156776 7.22156776 7.22156776 7.22156776 7.22156776 7.22156776 7.22156776 7.22156776 7.22156776 7.22156776 7.22156776 7.22156776 7.22156776 7.22156776 7.22156776 7.22156776 7.22156776 7.22156776 7.22156776 7.22156776 7.22156776 7.22156776 7.22156776 7.22156776 7.22156776 7.22156776 7.22156776 7.22156776 7.22156776 7.22156776 7.22156776 7.22156776 7.22156776 7.22156776 7.22156776 7.22156776 7.22156776 7.22156776 7.22156776 7.22156776 7.22156776 7.22156776 7.22156776 7.22156776 7.22156776 7.22156776 7.22156776 7.22156776 7.22156776 7.22156776 7.22156776 7.22156776 7.22156776 7.22156776 7.22156776 7.22156776 7.22156776 7.22156776 7.22156776 7.22156776 7.22156776 7.22156776 7.22156776 7.22156776 7.22156776 7.22156776 7.22156776 7.22156776 7.22156776 7.22156776 7.22156776 7.22156776 7.22156776 7.22156776 7.22156776 7.22156776 7.22156776 7.22156776 7.22156776 7.22156776 7.22156776 7.22156776 7.22156776 7.22156776 7.22156776 7.22156776 7.22156776 7.22156776 7.22156776 7.22156776 7.22156776 7.22156776 7.22156776 7.22156776 7.22156776 7.22156776 7.22156776 7.22156776 7.22156776 7.22156776 7.22156776 7.22156776 7.22156776 7.22156776 7.22156776 7.22156776 7.22156776 7.22156776 7.22156776 7.22156776 7.22156776 7.22156776 7.22156776 7.22156776 7.22156776 7.22156776 7.22156776 7.22156776 7.22156776 7.22156776 7.22156776 7.22156776 7.22156776 7.22156776 7.22156776 7.22156776 7.22156776 7.22156776 7.22156776 7.22156776 7.22156776 7.22156776 7.22156776 7.22156776 7.22156776 7.22156776 7.22156776 7.22156776 7.22156776 7.22156776 7.22156776 7.22156776 7.22156776 7.22156776 7.22156776 7.22156776 7.22156776 7.22156776 7.22156776 7.22156776 7.22156776 7.22156776 7.22156776 7.22156776 7.22156776 7.22156776 7.22156776 7.22156776 7.22156776 7.22156776 7.22156776 7.22156776 7.22156776 7.22156776 7.22156776 7.22156776 7.22156776 7.22156776 7.22156776 7.22156776 7.22156776 7.22156776 7.22156776 7.22156776 7.22156776 7.22156776 7.22156776 7.22156776 7.22156776 7.22156776 7.22156776 7.22156776 7.22156776 7.22156776 7.22156776 7.22156776 7.22156776 7.22156776 7.22156776 7.22156776 7.22156776 7.22156776 7.22156776 7.22156776 7.22156776 7.22156776 7.22156776 7.22156776 7.22156776 7.22156776 7.22156776 7.22156776 7.22156776 7.22156776 7.22156776 7.22156776 7.22156776 7.22156776 7.22156776 7.22156776 7.22156776 7.22156776 7.22156776 7.22156776 7.22156776 7.22156776 7.22156776 7.22156776 7.22156776 7.22156776 7.22156776 7.22156776 7.22156776 7.22156776 7.22156776 7.22156776 7.22156776 7.22156776 7.22156776 7.22156776 7.22156776 7.22156776 7.22156776 7.22156776 7.22156776 7.22156776 7.22156776 7.22156776 7.22156776 7.22156776 7.22156776 7.22156776 7.22156776 7.22156776 7.22156776 7.22156776 7.22156776 7.22156776 7.22156776 7.22156776 7.22156776 7.22156776 7.22156776 7.22156776 7.22156776 7.21919412 7.21786952 7.21737202 7.21737202 7.21786952 7.21919412 7.22156776 7.22156776 7.22156776 7.22156776 7.22156776 7.22156776 7.22156776 7.22156776 7.22156776 7.22156776 7.22156776 7.22156776 7.22156776 7.22156776 7.22156776 7.22156776 7.22156776 7.22156776 7.22156776 7.22156776 7.22156776 7.22156776 7.22156776 7.22156776 7.22156776 7.22156776 7.22156776 7.22156776 7.22156776 7.21906205 7.21720096 7.21613128 7.21547607 7.21488597 7.21380854 7.21289879 7.21245235 7.21245235 7.21289879 7.21380854 7.21488597 7.21547607 7.21613128 7.21720096 7.21906205 7.22156776 7.22156776 7.22156776 7.22156776 7.22156776 7.22156776 7.22156776 7.22156776 7.22156776 7.22156776 7.22156776 7.22156776 7.22156776 7.22156776 7.22156776 7.22156776 7.22156776 7.22156776 7.22156776 7.22156776 7.22156776 7.22156776 7.21785701 7.21582816 7.21384661 7.21211864 7.21092287 7.21014091 7.20954224 7.20891934 7.20839174 7.20810778 7.20810778 7.20839174 7.20891934 7.20954224 7.21014091 7.21092287 7.21211864 7.21384661 7.21582816 7.21785701 7.22156776 7.22156776 7.22156776 7.22156776 7.22156776 7.22156776 7.22156776 7.22156776 7.22156776 7.22156776 7.22156776 7.22156776 7.22156776 7.22156776 7.22156776 7.22156776 7.22156776 7.22156776 7.21809743 7.21565908 7.21284979 7.21070736 7.20903327 7.20775985 7.20691878 7.20641714 7.20609821 7.20583563 7.20562226 7.20550333 7.20550333 7.20562226 7.20583563 7.20609821 7.20641714 7.20691878 7.20775985 7.20903327 7.21070736 7.21284979 7.21565908 7.21809743 7.22156776 7.22156776 7.22156776 7.22156776 7.22156776 7.22156776 7.22156776 7.22156776 7.22156776 7.22156776 7.22156776 7.22156776 7.22156776 7.22156776 7.22156776 7.21717673 7.21355799 7.21071534 7.20838583 7.20673832 7.20568252 7.20508667 7.20484766 7.20484125 7.20493565 7.20503178 7.20509179 7.20511795 7.20511795 7.20509179 7.20503178 7.20493565 7.20484125 7.20484766 7.20508667 7.20568252 7.20673832 7.20838583 7.21071534 7.21355799 7.21717673 7.22156776 7.22156776 7.22156776 7.22156776 7.22156776 7.22156776 7.22156776 7.22156776 7.22156776 7.22156776 7.22156776 7.22156776 7.21933704 7.21622527 7.21240853 7.20915729 7.20677130 7.20521733 7.20442519 7.20422529 7.20442339 7.20485256 7.20537252 7.20587118 7.20627378 7.20654611 7.20668137 7.20668137 7.20654611 7.20627378 7.20587118 7.20537252 7.20485256 7.20442339 7.20422529 7.20442519 7.20521733 7.20677130 7.20915729 7.21240853 7.21622527 7.21933704 7.22156776 7.22156776 7.22156776 7.22156776 7.22156776 7.22156776 7.22156776 7.22156776 7.22156776 7.22156776 7.21618336 7.21186638 7.20825433 7.20565346 7.20415556 7.20363265 7.20385665 7.20456177 7.20550687 7.20650918 7.20744368 7.20823199 7.20883260 7.20923124 7.20942866 7.20942866 7.20923124 7.20883260 7.20823199 7.20744368 7.20650918 7.20550687 7.20456177 7.20385665 7.20363265 7.20415556 7.20565346 7.20825433 7.21186638 7.21618336 7.22156776 7.22156776 7.22156776 7.22156776 7.22156776 7.22156776 7.22156776 7.22156776 7.22156776 7.21714778 7.21225928 7.20806259 7.20501763 7.20333145 7.20292188 7.20349898 7.20469807 7.20618127 7.20769384 7.20907594 7.21024464 7.21116793 7.21184300 7.21228090 7.21249542 7.21249542 7.21228090 7.21184300 7.21116793 7.21024464 7.20907594 7.20769384 7.20618127 7.20469807 7.20349898 7.20292188 7.20333145 7.20501763 7.20806259 7.21225928 7.21714778 7.22156776 7.22156776 7.22156776 7.22156776 7.22156776 7.22156776 7.22156776 7.21830336 7.21362940 7.20887795 7.20508936 7.20280845 7.20213381 7.20280549 7.20437040 7.20635769 7.20839462 7.21024683 7.21180310 7.21303587 7.21396204 7.21461505 7.21502870 7.21522872 7.21522872 7.21502870 7.21461505 7.21396204 7.21303587 7.21180310 7.21024683 7.20839462 7.20635769 7.20437040 7.20280549 7.20213381 7.20280845 7.20508936 7.20887795 7.21362940 7.21830336 7.22156776 7.22156776 7.22156776 7.22156776 7.22156776 7.22156776 7.21645074 7.21113004 7.20638673 7.20303954 7.20151763 7.20176351 7.20334407 7.20566978 7.20820094 7.21056236 7.21256030 7.21414014 7.21532788 7.21618208 7.21676413 7.21712407 7.21729566 7.21729566 7.21712407 7.21676413 7.21618208 7.21532788 7.21414014 7.21256030 7.21056236 7.20820094 7.20566978 7.20334407 7.20176351 7.20151763 7.20303954 7.20638673 7.21113004 7.21645074 7.22156776 7.22156776 7.22156776 7.22156776 7.22156776 7.22156776 7.21527478 7.20950887 7.20479237 7.20181592 7.20089147 7.20182237 7.20404008 7.20686079 7.20970882 7.21222285 7.21425062 7.21578507 7.21689278 7.21766113 7.21816923 7.21847653 7.21862107 7.21862107 7.21847653 7.21816923 7.21766113 7.21689278 7.21578507 7.21425062 7.21222285 7.20970882 7.20686079 7.20404008 7.20182237 7.20089147 7.20181592 7.20479237 7.20950887 7.21527478 7.22156776 7.22156776 7.22156776 7.22156776 7.22156776 7.21965400 7.21430591 7.20863393 7.20400887 7.20125658 7.20066119 7.20195443 7.20449599 7.20755525 7.21054278 7.21310973 7.21512926 7.21662102 7.21767298 7.21838692 7.21885022 7.21912640 7.21925513 7.21925513 7.21912640 7.21885022 7.21838692 7.21767298 7.21662102 7.21512926 7.21310973 7.21054278 7.20755525 7.20449599 7.20195443 7.20066119 7.20125658 7.20400887 7.20863393 7.21430591 7.21965400 7.22156776 7.22156776 7.22156776 7.22156776 7.21965400 7.21430591 7.20863393 7.20400887 7.20125658 7.20066119 7.20195443 7.20449599 7.20755525 7.21054278 7.21310973 7.21512926 7.21662102 7.21767298 7.21838692 7.21885022 7.21912640 7.21925513 7.21925513 7.21912640 7.21885022 7.21838692 7.21767298 7.21662102 7.21512926 7.21310973 7.21054278 7.20755525 7.20449599 7.20195443 7.20066119 7.20125658 7.20400887 7.20863393 7.21430591 7.21965400 7.22156776 7.22156776 7.22156776 7.22156776 7.22156776 7.21527478 7.20950887 7.20479237 7.20181592 7.20089147 7.20182237 7.20404008 7.20686079 7.20970882 7.21222285 7.21425062 7.21578507 7.21689278 7.21766113 7.21816923 7.21847653 7.21862107 7.21862107 7.21847653 7.21816923 7.21766113 7.21689278 7.21578507 7.21425062 7.21222285 7.20970882 7.20686079 7.20404008 7.20182237 7.20089147 7.20181592 7.20479237 7.20950887 7.21527478 7.22156776 7.22156776 7.22156776 7.22156776 7.22156776 7.22156776 7.21645074 7.21113004 7.20638673 7.20303954 7.20151763 7.20176351 7.20334407 7.20566978 7.20820094 7.21056236 7.21256030 7.21414014 7.21532788 7.21618208 7.21676413 7.21712407 7.21729566 7.21729566 7.21712407 7.21676413 7.21618208 7.21532788 7.21414014 7.21256030 7.21056236 7.20820094 7.20566978 7.20334407 7.20176351 7.20151763 7.20303954 7.20638673 7.21113004 7.21645074 7.22156776 7.22156776 7.22156776 7.22156776 7.22156776 7.22156776 7.21830336 7.21362940 7.20887795 7.20508936 7.20280845 7.20213381 7.20280549 7.20437040 7.20635769 7.20839462 7.21024683 7.21180310 7.21303587 7.21396204 7.21461505 7.21502870 7.21522872 7.21522872 7.21502870 7.21461505 7.21396204 7.21303587 7.21180310 7.21024683 7.20839462 7.20635769 7.20437040 7.20280549 7.20213381 7.20280845 7.20508936 7.20887795 7.21362940 7.21830336 7.22156776 7.22156776 7.22156776 7.22156776 7.22156776 7.22156776 7.22156776 7.21714778 7.21225928 7.20806259 7.20501763 7.20333145 7.20292188 7.20349898 7.20469807 7.20618127 7.20769384 7.20907594 7.21024464 7.21116793 7.21184300 7.21228090 7.21249542 7.21249542 7.21228090 7.21184300 7.21116793 7.21024464 7.20907594 7.20769384 7.20618127 7.20469807 7.20349898 7.20292188 7.20333145 7.20501763 7.20806259 7.21225928 7.21714778 7.22156776 7.22156776 7.22156776 7.22156776 7.22156776 7.22156776 7.22156776 7.22156776 7.22156776 7.21618336 7.21186638 7.20825433 7.20565346 7.20415556 7.20363265 7.20385665 7.20456177 7.20550687 7.20650918 7.20744368 7.20823199 7.20883260 7.20923124 7.20942866 7.20942866 7.20923124 7.20883260 7.20823199 7.20744368 7.20650918 7.20550687 7.20456177 7.20385665 7.20363265 7.20415556 7.20565346 7.20825433 7.21186638 7.21618336 7.22156776 7.22156776 7.22156776 7.22156776 7.22156776 7.22156776 7.22156776 7.22156776 7.22156776 7.22156776 7.21933704 7.21622527 7.21240853 7.20915729 7.20677130 7.20521733 7.20442519 7.20422529 7.20442339 7.20485256 7.20537252 7.20587118 7.20627378 7.20654611 7.20668137 7.20668137 7.20654611 7.20627378 7.20587118 7.20537252 7.20485256 7.20442339 7.20422529 7.20442519 7.20521733 7.20677130 7.20915729 7.21240853 7.21622527 7.21933704 7.22156776 7.22156776 7.22156776 7.22156776 7.22156776 7.22156776 7.22156776 7.22156776 7.22156776 7.22156776 7.22156776 7.22156776 7.21717673 7.21355799 7.21071534 7.20838583 7.20673832 7.20568252 7.20508667 7.20484766 7.20484125 7.20493565 7.20503178 7.20509179 7.20511795 7.20511795 7.20509179 7.20503178 7.20493565 7.20484125 7.20484766 7.20508667 7.20568252 7.20673832 7.20838583 7.21071534 7.21355799 7.21717673 7.22156776 7.22156776 7.22156776 7.22156776 7.22156776 7.22156776 7.22156776 7.22156776 7.22156776 7.22156776 7.22156776 7.22156776 7.22156776 7.22156776 7.22156776 7.21809743 7.21565908 7.21284979 7.21070736 7.20903327 7.20775985 7.20691878 7.20641714 7.20609821 7.20583563 7.20562226 7.20550333 7.20550333 7.20562226 7.20583563 7.20609821 7.20641714 7.20691878 7.20775985 7.20903327 7.21070736 7.21284979 7.21565908 7.21809743 7.22156776 7.22156776 7.22156776 7.22156776 7.22156776 7.22156776 7.22156776 7.22156776 7.22156776 7.22156776 7.22156776 7.22156776 7.22156776 7.22156776 7.22156776 7.22156776 7.22156776 7.22156776 7.21785701 7.21582816 7.21384661 7.21211864 7.21092287 7.21014091 7.20954224 7.20891934 7.20839174 7.20810778 7.20810778 7.20839174 7.20891934 7.20954224 7.21014091 7.21092287 7.21211864 7.21384661 7.21582816 7.21785701 7.22156776 7.22156776 7.22156776 7.22156776 7.22156776 7.22156776 7.22156776 7.22156776 7.22156776 7.22156776 7.22156776 7.22156776 7.22156776 7.22156776 7.22156776 7.22156776 7.22156776 7.22156776 7.22156776 7.22156776 7.22156776 7.22156776 7.21906205 7.21720096 7.21613128 7.21547607 7.21488597 7.21380854 7.21289879 7.21245235 7.21245235 7.21289879 7.21380854 7.21488597 7.21547607 7.21613128 7.21720096 7.21906205 7.22156776 7.22156776 7.22156776 7.22156776 7.22156776 7.22156776 7.22156776 7.22156776 7.22156776 7.22156776 7.22156776 7.22156776 7.22156776 7.22156776 7.22156776 7.22156776 7.22156776 7.22156776 7.22156776 7.22156776 7.22156776 7.22156776 7.22156776 7.22156776 7.22156776 7.22156776 7.22156776 7.22156776 7.22156776 7.21919412 7.21786952 7.21737202 7.21737202 7.21786952 7.21919412 7.22156776 7.22156776 7.22156776 7.22156776 7.22156776 7.22156776 7.22156776 7.22156776 7.22156776 7.22156776 7.22156776 7.22156776 7.22156776 7.22156776 7.22156776 7.22156776 7.22156776 7.22156776 7.22156776 7.22156776 7.22156776 7.22156776 7.22156776 7.22156776 7.22156776 7.22156776 7.22156776 7.22156776 7.22156776 7.22156776 7.22156776 7.22156776 7.22156776 7.22156776 7.22156776 7.22156776 7.22156776 7.22156776 7.22156776 7.22156776 7.22156776 7.22156776 7.22156776 7.22156776 7.22156776 7.22156776 7.22156776 7.22156776 7.22156776 7.22156776 7.22156776 7.22156776 7.22156776 7.22156776 7.22156776 7.22156776 7.22156776 7.22156776 7.22156776 7.22156776 7.22156776 7.22156776 7.22156776 7.22156776 7.22156776 7.22156776 7.22156776 7.22156776 7.22156776 7.22156776 7.22156776 7.22156776 7.22156776 7.22156776 7.22156776 7.22156776 7.22156776 7.22156776 7.22156776 7.22156776 7.22156776 7.22156776 7.22156776 7.22156776 7.22156776 7.22156776 7.22156776 7.22156776 7.22156776 7.22156776 7.22156776 7.22156776 7.22156776 7.22156776 7.22156776 7.22156776 7.22156776 7.22156776 7.22156776 7.22156776 7.22156776 7.22156776 7.22156776 7.22156776 7.22156776 7.22156776 7.22156776 7.22156776 7.22156776 7.22156776 7.22156776 7.22156776 7.22156776 7.22156776 7.22156776 7.22156776 7.22156776 7.22156776 7.22156776 7.22156776 7.22156776 7.22156776 7.22156776 7.22156776 7.22156776 7.22156776 7.22156776 7.22156776 7.22156776 7.22156776 7.22156776 7.22156776 7.22156776 7.22156776 7.22156776 7.22156776 7.22156776 7.22156776 7.22156776 7.22156776 7.22156776 7.22156776 7.22156776 7.22156776 7.22156776 7.22156776 7.22156776 7.22156776 7.22156776 7.22156776 7.22156776 7.22156776 7.22156776 7.22156776 7.22156776 7.22156776 7.22156776 7.22156776 7.22156776 7.22156776 7.22156776 7.22156776 7.22156776 7.22156776 7.22156776 7.22156776 7.22156776 7.22156776 7.22156776 7.22156776 7.22156776 7.22156776 7.22156776 7.22156776 7.22156776 7.22156776 7.22156776 7.22156776 7.22156776 7.22156776 7.22156776 7.22156776 7.22156776 7.22156776 7.22156776 7.22156776 7.22156776 7.22156776 7.22156776 7.22156776 7.22156776 7.22156776 7.22156776 7.22156776 7.22156776 7.22156776 7.22156776 7.22156776 7.22156776 7.22156776 7.22156776 7.22156776 7.22156776 7.22156776 7.22156776 7.22156776 7.22156776 7.22156776 7.22156776 7.22156776 7.22156776 7.22156776 7.22156776 7.22156776 7.22156776 7.22156776 7.22156776 7.22156776 7.22156776 7.22156776 7.22156776 7.22156776 7.22156776 7.22156776 7.22156776 7.22156776 7.22156776 7.22156776 7.22156776 7.22156776 7.22156776 7.22156776 7.22156776 7.22156776 7.22156776 7.22156776 7.22156776 7.22156776 7.22156776 7.22156776 7.22156776 7.22156776 7.22156776 7.22156776 7.22156776 7.22156776 7.22156776 7.22156776 7.22156776 7.22156776 7.22156776 7.22156776 7.22156776 7.22156776 7.22156776 7.22156776 7.22156776 7.22156776 7.22156776 7.22156776 7.22156776 7.22156776 7.22156776 7.22156776 7.22156776 7.22156776 7.22156776 7.22156776 7.22156776 7.22156776 7.22156776 7.22156776 7.22156776 7.22156776 7.22156776 7.22156776 7.22156776 7.22156776 7.22156776 7.22156776 7.22156776 7.22156776 7.22156776 7.22156776 7.22156776 7.22156776 7.22156776 7.22156776 7.22156776 7.22156776 7.22156776 7.22156776 7.22156776 7.22156776 7.22156776 7.22156776 7.22156776 7.22156776 7.22156776 7.22156776 7.22156776 7.22156776 7.22156776 7.22156776 7.22156776 7.22156776 7.22156776 7.22156776 7.22156776 7.22156776 7.22156776 7.22156776 7.22156776 7.22156776 7.22156776 7.22156776 7.22156776 7.22156776 7.22156776 7.22156776 7.22156776 7.22156776 7.22156776 7.22156776 7.22156776 7.22156776 7.22156776 7.22156776 7.22156776 7.22156776 7.22156776 7.22156776 7.22156776 7.22156776 7.22156776 7.22156776 7.22156776 