# vtk DataFile Version 3.0
VTK - Matlab export
ASCII
DATASET STRUCTURED_POINTS
DIMENSIONS 40 40 1
SPACING 1 1 1
ORIGIN 0 0 0
POINT_DATA 1600
SCALARS Proofstrength float 1
LOOKUP_TABLE default
142.25514280 142.25514280 142.25514280 142.25514280 142.25514280 142.25514280 142.25514280 142.25514280 142.25514280 142.25514280 142.25514280 142.25514280 142.25514280 142.25514280 142.25514280 142.25514280 142.25514280 142.25514280 142.25514280 142.25514280 142.25514280 142.25514280 142.25514280 142.25514280 142.25514280 142.25514280 142.25514280 142.25514280 142.25514280 142.25514280 142.25514280 142.25514280 142.25514280 142.25514280 142.25514280 142.25514280 142.25514280 142.25514280 142.25514280 142.25514280 142.25514280 142.25514280 142.25514280 142.25514280 142.25514280 142.25514280 142.25514280 142.25514280 142.25514280 142.25514280 142.25514280 142.25514280 142.25514280 142.25514280 142.25514280 142.25514280 142.25514280 142.25514280 142.25514280 142.25514280 142.25514280 142.25514280 142.25514280 142.25514280 142.25514280 142.25514280 142.25514280 142.25514280 142.25514280 142.25514280 142.25514280 142.25514280 142.25514280 142.25514280 142.25514280 142.25514280 142.25514280 142.25514280 142.25514280 142.25514280 142.25514280 142.25514280 142.25514280 142.25514280 142.25514280 142.25514280 142.25514280 142.25514280 142.25514280 142.25514280 142.25514280 142.25514280 142.25514280 142.25514280 142.25514280 142.25514280 142.25514280 142.25514280 142.25514280 142.25514280 142.25514280 142.25514280 142.25514280 142.25514280 142.25514280 142.25514280 142.25514280 142.25514280 142.25514280 142.25514280 142.25514280 142.25514280 142.25514280 142.25514280 142.25514280 142.25514280 142.25514280 142.25514280 142.25514280 142.25514280 142.25514280 142.25514280 142.25514280 142.25514280 142.25514280 142.25514280 142.25514280 142.25514280 142.25514280 142.25514280 142.25514280 142.25514280 142.25514280 142.25514280 142.25514280 142.25514280 142.25514280 142.25514280 142.25514280 142.25514280 142.25514280 142.25514280 142.25514280 142.25514280 142.25514280 142.25514280 142.25514280 142.25514280 142.25514280 142.25514280 142.25514280 142.25514280 142.25514280 142.25514280 142.25514280 142.25514280 142.25514280 142.25514280 142.25514280 142.25514280 142.25514280 142.25514280 142.25514280 142.25514280 142.25514280 142.25514280 142.25514280 142.25514280 142.25514280 142.25514280 142.25514280 142.25514280 142.25514280 142.25514280 142.25514280 142.25514280 142.25514280 142.25514280 142.25514280 142.25514280 142.25514280 142.25514280 142.25514280 142.25514280 142.25514280 142.25514280 142.25514280 142.25514280 142.25514280 142.25514280 142.25514280 142.25514280 142.25514280 142.25514280 142.25514280 142.25514280 142.25514280 142.25514280 142.25514280 142.25514280 142.25514280 142.25514280 142.25514280 142.25514280 142.25514280 142.25514280 142.25514280 142.25514280 142.25514280 142.25514280 142.25514280 142.25514280 142.25514280 142.25514280 142.25514280 142.25514280 142.25514280 142.25514280 142.25514280 142.25514280 142.25514280 142.25514280 142.25514280 142.25514280 142.25514280 142.25514280 142.25514280 142.25514280 142.25514280 142.25514280 142.25514280 142.25514280 142.25514280 142.25514280 142.25514280 142.25514280 142.25514280 142.25514280 142.25514280 142.25514280 142.25514280 142.25514280 142.25514280 142.25514280 142.25514280 142.25514280 142.25514280 142.25514280 142.25514280 142.25514280 142.25514280 142.25514280 142.25514280 142.25514280 142.25514280 142.25514280 142.25514280 142.25514280 142.25514280 142.25514280 142.25514280 142.25514280 142.25514280 142.25514280 142.25514280 142.25514280 142.25514280 142.25514280 142.25514280 142.25514280 142.25514280 142.25514280 142.25514280 142.25514280 142.25514280 142.25514280 142.25514280 142.25514280 142.25514280 142.25514280 142.25514280 142.25514280 142.25514280 142.25514280 142.25514280 142.25514280 142.25514280 142.25514280 142.25514280 142.25514280 142.25514280 142.25514280 142.25514280 142.25514280 142.25514280 142.25514280 142.25514280 142.25514280 142.25514280 142.25514280 142.25514280 142.25514280 142.25514280 142.25514280 142.25514280 142.25514280 142.25514280 142.25514280 142.25514280 142.25514280 142.25514280 142.25514280 142.25514280 142.25514280 142.25514280 142.25514280 142.25514280 142.25514280 142.25514280 142.25514280 142.25514280 142.25514280 142.25514280 142.25514280 142.25514280 142.25514280 142.25514280 142.25514280 142.25514280 142.25514280 142.25514280 142.25514280 142.25514280 142.25514280 142.25514280 142.25514280 142.25514280 142.25668080 142.25751221 142.25781701 142.25781701 142.25751221 142.25668080 142.25514280 142.25514280 142.25514280 142.25514280 142.25514280 142.25514280 142.25514280 142.25514280 142.25514280 142.25514280 142.25514280 142.25514280 142.25514280 142.25514280 142.25514280 142.25514280 142.25514280 142.25514280 142.25514280 142.25514280 142.25514280 142.25514280 142.25514280 142.25514280 142.25514280 142.25514280 142.25514280 142.25514280 142.25514280 142.25676770 142.25797943 142.25870609 142.25918340 142.25961401 142.26033059 142.26091362 142.26119460 142.26119460 142.26091362 142.26033059 142.25961401 142.25918340 142.25870609 142.25797943 142.25676770 142.25514280 142.25514280 142.25514280 142.25514280 142.25514280 142.25514280 142.25514280 142.25514280 142.25514280 142.25514280 142.25514280 142.25514280 142.25514280 142.25514280 142.25514280 142.25514280 142.25514280 142.25514280 142.25514280 142.25514280 142.25514280 142.25514280 142.25756149 142.25892192 142.26028547 142.26151623 142.26243700 142.26310566 142.26363954 142.26414603 142.26454517 142.26475352 142.26475352 142.26454517 142.26414603 142.26363954 142.26310566 142.26243700 142.26151623 142.26028547 142.25892192 142.25756149 142.25514280 142.25514280 142.25514280 142.25514280 142.25514280 142.25514280 142.25514280 142.25514280 142.25514280 142.25514280 142.25514280 142.25514280 142.25514280 142.25514280 142.25514280 142.25514280 142.25514280 142.25514280 142.25740393 142.25905387 142.26100692 142.26261156 142.26397902 142.26512623 142.26600969 142.26665985 142.26714567 142.26752517 142.26779690 142.26793768 142.26793768 142.26779690 142.26752517 142.26714567 142.26665985 142.26600969 142.26512623 142.26397902 142.26261156 142.26100692 142.25905387 142.25740393 142.25514280 142.25514280 142.25514280 142.25514280 142.25514280 142.25514280 142.25514280 142.25514280 142.25514280 142.25514280 142.25514280 142.25514280 142.25514280 142.25514280 142.25514280 142.25801339 142.26048926 142.26261113 142.26453537 142.26612518 142.26738976 142.26836270 142.26906979 142.26955931 142.26989282 142.27012182 142.27027052 142.27034439 142.27034439 142.27027052 142.27012182 142.26989282 142.26955931 142.26906979 142.26836270 142.26738976 142.26612518 142.26453537 142.26261113 142.26048926 142.25801339 142.25514280 142.25514280 142.25514280 142.25514280 142.25514280 142.25514280 142.25514280 142.25514280 142.25514280 142.25514280 142.25514280 142.25514280 142.25654072 142.25858422 142.26124985 142.26378222 142.26598386 142.26781269 142.26922797 142.27025219 142.27094267 142.27136656 142.27159715 142.27170533 142.27174803 142.27176154 142.27176449 142.27176449 142.27176154 142.27174803 142.27170533 142.27159715 142.27136656 142.27094267 142.27025219 142.26922797 142.26781269 142.26598386 142.26378222 142.26124985 142.25858422 142.25654072 142.25514280 142.25514280 142.25514280 142.25514280 142.25514280 142.25514280 142.25514280 142.25514280 142.25514280 142.25514280 142.25853258 142.26149324 142.26434487 142.26689775 142.26901010 142.27062388 142.27173901 142.27241150 142.27273149 142.27279976 142.27271346 142.27255625 142.27239197 142.27226294 142.27219317 142.27219317 142.27226294 142.27239197 142.27255625 142.27271346 142.27279976 142.27273149 142.27241150 142.27173901 142.27062388 142.26901010 142.26689775 142.26434487 142.26149324 142.25853258 142.25514280 142.25514280 142.25514280 142.25514280 142.25514280 142.25514280 142.25514280 142.25514280 142.25514280 142.25783198 142.26103547 142.26420922 142.26713776 142.26962402 142.27154069 142.27284772 142.27358201 142.27383866 142.27374372 142.27342799 142.27300890 142.27258074 142.27221161 142.27194543 142.27180696 142.27180696 142.27194543 142.27221161 142.27258074 142.27300890 142.27342799 142.27374372 142.27383866 142.27358201 142.27284772 142.27154069 142.26962402 142.26713776 142.26420922 142.26103547 142.25783198 142.25514280 142.25514280 142.25514280 142.25514280 142.25514280 142.25514280 142.25514280 142.25705529 142.25995618 142.26327554 142.26655549 142.26948252 142.27183730 142.27350175 142.27446170 142.27479142 142.27462511 142.27412293 142.27344126 142.27271305 142.27203921 142.27148861 142.27110336 142.27090600 142.27090600 142.27110336 142.27148861 142.27203921 142.27271305 142.27344126 142.27412293 142.27462511 142.27479142 142.27446170 142.27350175 142.27183730 142.26948252 142.26655549 142.26327554 142.25995618 142.25705529 142.25514280 142.25514280 142.25514280 142.25514280 142.25514280 142.25514280 142.25813737 142.26150005 142.26502966 142.26839148 142.27128173 142.27348360 142.27489383 142.27552538 142.27548691 142.27494700 142.27409441 142.27310528 142.27212306 142.27125157 142.27055781 142.27008015 142.26983761 142.26983761 142.27008015 142.27055781 142.27125157 142.27212306 142.27310528 142.27409441 142.27494700 142.27548691 142.27552538 142.27489383 142.27348360 142.27128173 142.26839148 142.26502966 142.26150005 142.25813737 142.25514280 142.25514280 142.25514280 142.25514280 142.25514280 142.25514280 142.25883136 142.26253365 142.26622862 142.26964315 142.27248975 142.27456036 142.27576650 142.27614354 142.27582666 142.27500996 142.27390262 142.27269399 142.27153361 142.27052584 142.26973494 142.26919541 142.26892290 142.26892290 142.26919541 142.26973494 142.27052584 142.27153361 142.27269399 142.27390262 142.27500996 142.27582666 142.27614354 142.27576650 142.27456036 142.27248975 142.26964315 142.26622862 142.26253365 142.25883136 142.25514280 142.25514280 142.25514280 142.25514280 142.25514280 142.25623991 142.25939423 142.26309728 142.26684454 142.27027708 142.27309412 142.27508928 142.27618219 142.27642067 142.27595433 142.27499084 142.27374995 142.27242758 142.27117593 142.27009915 142.26925959 142.26868935 142.26840205 142.26840205 142.26868935 142.26925959 142.27009915 142.27117593 142.27242758 142.27374995 142.27499084 142.27595433 142.27642067 142.27618219 142.27508928 142.27309412 142.27027708 142.26684454 142.26309728 142.25939423 142.25623991 142.25514280 142.25514280 142.25514280 142.25514280 142.25623991 142.25939423 142.26309728 142.26684454 142.27027708 142.27309412 142.27508928 142.27618219 142.27642067 142.27595433 142.27499084 142.27374995 142.27242758 142.27117593 142.27009915 142.26925959 142.26868935 142.26840205 142.26840205 142.26868935 142.26925959 142.27009915 142.27117593 142.27242758 142.27374995 142.27499084 142.27595433 142.27642067 142.27618219 142.27508928 142.27309412 142.27027708 142.26684454 142.26309728 142.25939423 142.25623991 142.25514280 142.25514280 142.25514280 142.25514280 142.25514280 142.25883136 142.26253365 142.26622862 142.26964315 142.27248975 142.27456036 142.27576650 142.27614354 142.27582666 142.27500996 142.27390262 142.27269399 142.27153361 142.27052584 142.26973494 142.26919541 142.26892290 142.26892290 142.26919541 142.26973494 142.27052584 142.27153361 142.27269399 142.27390262 142.27500996 142.27582666 142.27614354 142.27576650 142.27456036 142.27248975 142.26964315 142.26622862 142.26253365 142.25883136 142.25514280 142.25514280 142.25514280 142.25514280 142.25514280 142.25514280 142.25813737 142.26150005 142.26502966 142.26839148 142.27128173 142.27348360 142.27489383 142.27552538 142.27548691 142.27494700 142.27409441 142.27310528 142.27212306 142.27125157 142.27055781 142.27008015 142.26983761 142.26983761 142.27008015 142.27055781 142.27125157 142.27212306 142.27310528 142.27409441 142.27494700 142.27548691 142.27552538 142.27489383 142.27348360 142.27128173 142.26839148 142.26502966 142.26150005 142.25813737 142.25514280 142.25514280 142.25514280 142.25514280 142.25514280 142.25514280 142.25705529 142.25995618 142.26327554 142.26655549 142.26948252 142.27183730 142.27350175 142.27446170 142.27479142 142.27462511 142.27412293 142.27344126 142.27271305 142.27203921 142.27148861 142.27110336 142.27090600 142.27090600 142.27110336 142.27148861 142.27203921 142.27271305 142.27344126 142.27412293 142.27462511 142.27479142 142.27446170 142.27350175 142.27183730 142.26948252 142.26655549 142.26327554 142.25995618 142.25705529 142.25514280 142.25514280 142.25514280 142.25514280 142.25514280 142.25514280 142.25514280 142.25783198 142.26103547 142.26420922 142.26713776 142.26962402 142.27154069 142.27284772 142.27358201 142.27383866 142.27374372 142.27342799 142.27300890 142.27258074 142.27221161 142.27194543 142.27180696 142.27180696 142.27194543 142.27221161 142.27258074 142.27300890 142.27342799 142.27374372 142.27383866 142.27358201 142.27284772 142.27154069 142.26962402 142.26713776 142.26420922 142.26103547 142.25783198 142.25514280 142.25514280 142.25514280 142.25514280 142.25514280 142.25514280 142.25514280 142.25514280 142.25514280 142.25853258 142.26149324 142.26434487 142.26689775 142.26901010 142.27062388 142.27173901 142.27241150 142.27273149 142.27279976 142.27271346 142.27255625 142.27239197 142.27226294 142.27219317 142.27219317 142.27226294 142.27239197 142.27255625 142.27271346 142.27279976 142.27273149 142.27241150 142.27173901 142.27062388 142.26901010 142.26689775 142.26434487 142.26149324 142.25853258 142.25514280 142.25514280 142.25514280 142.25514280 142.25514280 142.25514280 142.25514280 142.25514280 142.25514280 142.25514280 142.25654072 142.25858422 142.26124985 142.26378222 142.26598386 142.26781269 142.26922797 142.27025219 142.27094267 142.27136656 142.27159715 142.27170533 142.27174803 142.27176154 142.27176449 142.27176449 142.27176154 142.27174803 142.27170533 142.27159715 142.27136656 142.27094267 142.27025219 142.26922797 142.26781269 142.26598386 142.26378222 142.26124985 142.25858422 142.25654072 142.25514280 142.25514280 142.25514280 142.25514280 142.25514280 142.25514280 142.25514280 142.25514280 142.25514280 142.25514280 142.25514280 142.25514280 142.25801339 142.26048926 142.26261113 142.26453537 142.26612518 142.26738976 142.26836270 142.26906979 142.26955931 142.26989282 142.27012182 142.27027052 142.27034439 142.27034439 142.27027052 142.27012182 142.26989282 142.26955931 142.26906979 142.26836270 142.26738976 142.26612518 142.26453537 142.26261113 142.26048926 142.25801339 142.25514280 142.25514280 142.25514280 142.25514280 142.25514280 142.25514280 142.25514280 142.25514280 142.25514280 142.25514280 142.25514280 142.25514280 142.25514280 142.25514280 142.25514280 142.25740393 142.25905387 142.26100692 142.26261156 142.26397902 142.26512623 142.26600969 142.26665985 142.26714567 142.26752517 142.26779690 142.26793768 142.26793768 142.26779690 142.26752517 142.26714567 142.26665985 142.26600969 142.26512623 142.26397902 142.26261156 142.26100692 142.25905387 142.25740393 142.25514280 142.25514280 142.25514280 142.25514280 142.25514280 142.25514280 142.25514280 142.25514280 142.25514280 142.25514280 142.25514280 142.25514280 142.25514280 142.25514280 142.25514280 142.25514280 142.25514280 142.25514280 142.25756149 142.25892192 142.26028547 142.26151623 142.26243700 142.26310566 142.26363954 142.26414603 142.26454517 142.26475352 142.26475352 142.26454517 142.26414603 142.26363954 142.26310566 142.26243700 142.26151623 142.26028547 142.25892192 142.25756149 142.25514280 142.25514280 142.25514280 142.25514280 142.25514280 142.25514280 142.25514280 142.25514280 142.25514280 142.25514280 142.25514280 142.25514280 142.25514280 142.25514280 142.25514280 142.25514280 142.25514280 142.25514280 142.25514280 142.25514280 142.25514280 142.25514280 142.25676770 142.25797943 142.25870609 142.25918340 142.25961401 142.26033059 142.26091362 142.26119460 142.26119460 142.26091362 142.26033059 142.25961401 142.25918340 142.25870609 142.25797943 142.25676770 142.25514280 142.25514280 142.25514280 142.25514280 142.25514280 142.25514280 142.25514280 142.25514280 142.25514280 142.25514280 142.25514280 142.25514280 142.25514280 142.25514280 142.25514280 142.25514280 142.25514280 142.25514280 142.25514280 142.25514280 142.25514280 142.25514280 142.25514280 142.25514280 142.25514280 142.25514280 142.25514280 142.25514280 142.25514280 142.25668080 142.25751221 142.25781701 142.25781701 142.25751221 142.25668080 142.25514280 142.25514280 142.25514280 142.25514280 142.25514280 142.25514280 142.25514280 142.25514280 142.25514280 142.25514280 142.25514280 142.25514280 142.25514280 142.25514280 142.25514280 142.25514280 142.25514280 142.25514280 142.25514280 142.25514280 142.25514280 142.25514280 142.25514280 142.25514280 142.25514280 142.25514280 142.25514280 142.25514280 142.25514280 142.25514280 142.25514280 142.25514280 142.25514280 142.25514280 142.25514280 142.25514280 142.25514280 142.25514280 142.25514280 142.25514280 142.25514280 142.25514280 142.25514280 142.25514280 142.25514280 142.25514280 142.25514280 142.25514280 142.25514280 142.25514280 142.25514280 142.25514280 142.25514280 142.25514280 142.25514280 142.25514280 142.25514280 142.25514280 142.25514280 142.25514280 142.25514280 142.25514280 142.25514280 142.25514280 142.25514280 142.25514280 142.25514280 142.25514280 142.25514280 142.25514280 142.25514280 142.25514280 142.25514280 142.25514280 142.25514280 142.25514280 142.25514280 142.25514280 142.25514280 142.25514280 142.25514280 142.25514280 142.25514280 142.25514280 142.25514280 142.25514280 142.25514280 142.25514280 142.25514280 142.25514280 142.25514280 142.25514280 142.25514280 142.25514280 142.25514280 142.25514280 142.25514280 142.25514280 142.25514280 142.25514280 142.25514280 142.25514280 142.25514280 142.25514280 142.25514280 142.25514280 142.25514280 142.25514280 142.25514280 142.25514280 142.25514280 142.25514280 142.25514280 142.25514280 142.25514280 142.25514280 142.25514280 142.25514280 142.25514280 142.25514280 142.25514280 142.25514280 142.25514280 142.25514280 142.25514280 142.25514280 142.25514280 142.25514280 142.25514280 142.25514280 142.25514280 142.25514280 142.25514280 142.25514280 142.25514280 142.25514280 142.25514280 142.25514280 142.25514280 142.25514280 142.25514280 142.25514280 142.25514280 142.25514280 142.25514280 142.25514280 142.25514280 142.25514280 142.25514280 142.25514280 142.25514280 142.25514280 142.25514280 142.25514280 142.25514280 142.25514280 142.25514280 142.25514280 142.25514280 142.25514280 142.25514280 142.25514280 142.25514280 142.25514280 142.25514280 142.25514280 142.25514280 142.25514280 142.25514280 142.25514280 142.25514280 142.25514280 142.25514280 142.25514280 142.25514280 142.25514280 142.25514280 142.25514280 142.25514280 142.25514280 142.25514280 142.25514280 142.25514280 142.25514280 142.25514280 142.25514280 142.25514280 142.25514280 142.25514280 142.25514280 142.25514280 142.25514280 142.25514280 142.25514280 142.25514280 142.25514280 142.25514280 142.25514280 142.25514280 142.25514280 142.25514280 142.25514280 142.25514280 142.25514280 142.25514280 142.25514280 142.25514280 142.25514280 142.25514280 142.25514280 142.25514280 142.25514280 142.25514280 142.25514280 142.25514280 142.25514280 142.25514280 142.25514280 142.25514280 142.25514280 142.25514280 142.25514280 142.25514280 142.25514280 142.25514280 142.25514280 142.25514280 142.25514280 142.25514280 142.25514280 142.25514280 142.25514280 142.25514280 142.25514280 142.25514280 142.25514280 142.25514280 142.25514280 142.25514280 142.25514280 142.25514280 142.25514280 142.25514280 142.25514280 142.25514280 142.25514280 142.25514280 142.25514280 142.25514280 142.25514280 142.25514280 142.25514280 142.25514280 142.25514280 142.25514280 142.25514280 142.25514280 142.25514280 142.25514280 142.25514280 142.25514280 142.25514280 142.25514280 142.25514280 142.25514280 142.25514280 142.25514280 142.25514280 142.25514280 142.25514280 142.25514280 142.25514280 142.25514280 142.25514280 142.25514280 142.25514280 142.25514280 142.25514280 142.25514280 142.25514280 142.25514280 142.25514280 142.25514280 142.25514280 142.25514280 142.25514280 142.25514280 142.25514280 142.25514280 142.25514280 142.25514280 142.25514280 142.25514280 142.25514280 142.25514280 142.25514280 142.25514280 142.25514280 142.25514280 142.25514280 142.25514280 142.25514280 142.25514280 142.25514280 142.25514280 142.25514280 142.25514280 142.25514280 142.25514280 142.25514280 142.25514280 142.25514280 142.25514280 142.25514280 142.25514280 142.25514280 142.25514280 142.25514280 142.25514280 142.25514280 142.25514280 142.25514280 142.25514280 142.25514280 142.25514280 142.25514280 142.25514280 142.25514280 142.25514280 142.25514280 142.25514280 142.25514280 142.25514280 142.25514280 142.25514280 142.25514280 142.25514280 