# vtk DataFile Version 3.0
VTK - Matlab export
ASCII
DATASET STRUCTURED_POINTS
DIMENSIONS 40 40 1
SPACING 1 1 1
ORIGIN 0 0 0
POINT_DATA 1600
SCALARS lambda-2 float 1
LOOKUP_TABLE default
7.22156776 7.22156776 7.22156776 7.22156776 7.22156776 7.22156776 7.22156776 7.22156776 7.22156776 7.22156776 7.22156776 7.22156776 7.22156776 7.22156776 7.22156776 7.22156776 7.22156776 7.22156776 7.22156776 7.22156776 7.22156776 7.22156776 7.22156776 7.22156776 7.22156776 7.22156776 7.22156776 7.22156776 7.22156776 7.22156776 7.22156776 7.22156776 7.22156776 7.22156776 7.22156776 7.22156776 7.22156776 7.22156776 7.22156776 7.22156776 7.22156776 7.22156776 7.22156776 7.22156776 7.22156776 7.22156776 7.22156776 7.22156776 7.22156776 7.22156776 7.22156776 7.22156776 7.22156776 7.22156776 7.22156776 7.22156776 7.22156776 7.22156776 7.22156776 7.22156776 7.22156776 7.22156776 7.22156776 7.22156776 7.22156776 7.22156776 7.22156776 7.22156776 7.22156776 7.22156776 7.22156776 7.22156776 7.22156776 7.22156776 7.22156776 7.22156776 7.22156776 7.22156776 7.22156776 7.22156776 7.22156776 7.22156776 7.22156776 7.22156776 7.22156776 7.22156776 7.22156776 7.22156776 7.22156776 7.22156776 7.22156776 7.22156776 7.22156776 7.22156776 7.22156776 7.22156776 7.22156776 7.22156776 7.22156776 7.22156776 7.22156776 7.22156776 7.22156776 7.22156776 7.22156776 7.22156776 7.22156776 7.22156776 7.22156776 7.22156776 7.22156776 7.22156776 7.22156776 7.22156776 7.22156776 7.22156776 7.22156776 7.22156776 7.22156776 7.22156776 7.22156776 7.22156776 7.22156776 7.22156776 7.22156776 7.22156776 7.22156776 7.22156776 7.22156776 7.22156776 7.22156776 7.22156776 7.22156776 7.22156776 7.22156776 7.22156776 7.22156776 7.22156776 7.22156776 7.22156776 7.22156776 7.22156776 7.22156776 7.22156776 7.22156776 7.22156776 7.22156776 7.22156776 7.22156776 7.22156776 7.22156776 7.22156776 7.22156776 7.22156776 7.22156776 7.22156776 7.22156776 7.22156776 7.22156776 7.22156776 7.22156776 7.22156776 7.22156776 7.22156776 7.22156776 7.22156776 7.22156776 7.22156776 7.22156776 7.22156776 7.22156776 7.22156776 7.22156776 7.22156776 7.22156776 7.22156776 7.22156776 7.22156776 7.22156776 7.22156776 7.22156776 7.22156776 7.22156776 7.22156776 7.22156776 7.22156776 7.22156776 7.22156776 7.22156776 7.22156776 7.22156776 7.22156776 7.22156776 7.22156776 7.22156776 7.22156776 7.22156776 7.22156776 7.22156776 7.22156776 7.22156776 7.22156776 7.22156776 7.22156776 7.22156776 7.22156776 7.22156776 7.22156776 7.22156776 7.22156776 7.22156776 7.22156776 7.22156776 7.22156776 7.22156776 7.22156776 7.22156776 7.22156776 7.22156776 7.22156776 7.22156776 7.22156776 7.22156776 7.22156776 7.22156776 7.22156776 7.22156776 7.22156776 7.22156776 7.22156776 7.22156776 7.22156776 7.22156776 7.22156776 7.22156776 7.22156776 7.22156776 7.22156776 7.22156776 7.22156776 7.22156776 7.22156776 7.22156776 7.22156776 7.22156776 7.22156776 7.22156776 7.22156776 7.22156776 7.22156776 7.22156776 7.22156776 7.22156776 7.22156776 7.22156776 7.22156776 7.22156776 7.22156776 7.22156776 7.22156776 7.22156776 7.22156776 7.22156776 7.22156776 7.22156776 7.22156776 7.22156776 7.22156776 7.22156776 7.22156776 7.22156776 7.22156776 7.22156776 7.22156776 7.22156776 7.22156776 7.22156776 7.22156776 7.22156776 7.22156776 7.22156776 7.22156776 7.22156776 7.22156776 7.22156776 7.22156776 7.22156776 7.22156776 7.22156776 7.22156776 7.22156776 7.22156776 7.22156776 7.22156776 7.22156776 7.22156776 7.22156776 7.22156776 7.22156776 7.22156776 7.22156776 7.22156776 7.22156776 7.22156776 7.22156776 7.22156776 7.22156776 7.22156776 7.22156776 7.22156776 7.22156776 7.22156776 7.22156776 7.22156776 7.22156776 7.22156776 7.22156776 7.22156776 7.22156776 7.22156776 7.22156776 7.22156776 7.22156776 7.22156776 7.22156776 7.22156776 7.22156776 7.22156776 7.22156776 7.22156776 7.22156776 7.22156776 7.22156776 7.22156776 7.22156776 7.22156776 7.22156776 7.22084119 7.22045164 7.22030962 7.22030962 7.22045164 7.22084119 7.22156776 7.22156776 7.22156776 7.22156776 7.22156776 7.22156776 7.22156776 7.22156776 7.22156776 7.22156776 7.22156776 7.22156776 7.22156776 7.22156776 7.22156776 7.22156776 7.22156776 7.22156776 7.22156776 7.22156776 7.22156776 7.22156776 7.22156776 7.22156776 7.22156776 7.22156776 7.22156776 7.22156776 7.22156776 7.22080206 7.22022920 7.21988138 7.21964896 7.21943922 7.21909824 7.21882322 7.21869114 7.21869114 7.21882322 7.21909824 7.21943922 7.21964896 7.21988138 7.22022920 7.22080206 7.22156776 7.22156776 7.22156776 7.22156776 7.22156776 7.22156776 7.22156776 7.22156776 7.22156776 7.22156776 7.22156776 7.22156776 7.22156776 7.22156776 7.22156776 7.22156776 7.22156776 7.22156776 7.22156776 7.22156776 7.22156776 7.22156776 7.22043312 7.21978622 7.21913108 7.21853344 7.21807752 7.21773892 7.21746632 7.21721237 7.21701511 7.21691269 7.21691269 7.21701511 7.21721237 7.21746632 7.21773892 7.21807752 7.21853344 7.21913108 7.21978622 7.22043312 7.22156776 7.22156776 7.22156776 7.22156776 7.22156776 7.22156776 7.22156776 7.22156776 7.22156776 7.22156776 7.22156776 7.22156776 7.22156776 7.22156776 7.22156776 7.22156776 7.22156776 7.22156776 7.22051772 7.21973781 7.21880248 7.21801467 7.21732605 7.21673391 7.21626340 7.21590517 7.21563153 7.21541855 7.21526806 7.21519070 7.21519070 7.21526806 7.21541855 7.21563153 7.21590517 7.21626340 7.21673391 7.21732605 7.21801467 7.21880248 7.21973781 7.22051772 7.22156776 7.22156776 7.22156776 7.22156776 7.22156776 7.22156776 7.22156776 7.22156776 7.22156776 7.22156776 7.22156776 7.22156776 7.22156776 7.22156776 7.22156776 7.22024372 7.21907956 7.21805144 7.21708829 7.21625834 7.21556554 7.21500385 7.21456991 7.21424831 7.21401545 7.21385024 7.21374226 7.21368872 7.21368872 7.21374226 7.21385024 7.21401545 7.21424831 7.21456991 7.21500385 7.21556554 7.21625834 7.21708829 7.21805144 7.21907956 7.22024372 7.22156776 7.22156776 7.22156776 7.22156776 7.22156776 7.22156776 7.22156776 7.22156776 7.22156776 7.22156776 7.22156776 7.22156776 7.22093683 7.21999938 7.21875039 7.21752365 7.21640636 7.21542314 7.21460403 7.21395329 7.21345917 7.21310278 7.21285866 7.21269865 7.21259784 7.21253883 7.21251160 7.21251160 7.21253883 7.21259784 7.21269865 7.21285866 7.21310278 7.21345917 7.21395329 7.21460403 7.21542314 7.21640636 7.21752365 7.21875039 7.21999938 7.22093683 7.22156776 7.22156776 7.22156776 7.22156776 7.22156776 7.22156776 7.22156776 7.22156776 7.22156776 7.22156776 7.22004163 7.21867455 7.21730625 7.21601461 7.21486603 7.21389922 7.21313366 7.21256573 7.21217419 7.21192761 7.21178988 7.21172524 7.21170295 7.21170014 7.21170222 7.21170222 7.21170014 7.21170295 7.21172524 7.21178988 7.21192761 7.21217419 7.21256573 7.21313366 7.21389922 7.21486603 7.21601461 7.21730625 7.21867455 7.22004163 7.22156776 7.22156776 7.22156776 7.22156776 7.22156776 7.22156776 7.22156776 7.22156776 7.22156776 7.22037420 7.21892239 7.21743129 7.21597910 7.21464819 7.21350401 7.21258546 7.21190436 7.21144724 7.21118158 7.21106410 7.21104822 7.21109013 7.21115313 7.21120981 7.21124245 7.21124245 7.21120981 7.21115313 7.21109013 7.21104822 7.21106410 7.21118158 7.21144724 7.21190436 7.21258546 7.21350401 7.21464819 7.21597910 7.21743129 7.21892239 7.22037420 7.22156776 7.22156776 7.22156776 7.22156776 7.22156776 7.22156776 7.22156776 7.22072997 7.21943967 7.21792006 7.21634619 7.21483876 7.21349274 7.21237595 7.21152464 7.21094305 7.21060749 7.21047415 7.21048870 7.21059505 7.21074210 7.21088795 7.21100167 7.21106335 7.21106335 7.21100167 7.21088795 7.21074210 7.21059505 7.21048870 7.21047415 7.21060749 7.21094305 7.21152464 7.21237595 7.21349274 7.21483876 7.21634619 7.21792006 7.21943967 7.22072997 7.22156776 7.22156776 7.22156776 7.22156776 7.22156776 7.22156776 7.22025887 7.21876156 7.21713135 7.21548588 7.21394153 7.21259556 7.21151580 7.21073477 7.21024961 7.21002733 7.21001421 7.21014655 7.21036043 7.21059888 7.21081601 7.21097841 7.21106474 7.21106474 7.21097841 7.21081601 7.21059888 7.21036043 7.21014655 7.21001421 7.21002733 7.21024961 7.21073477 7.21151580 7.21259556 7.21394153 7.21548588 7.21713135 7.21876156 7.22025887 7.22156776 7.22156776 7.22156776 7.22156776 7.22156776 7.22156776 7.21995754 7.21830712 7.21658906 7.21489189 7.21332524 7.21198552 7.21093937 7.21021591 7.20980664 7.20967153 7.20974948 7.20996999 7.21026358 7.21056924 7.21083843 7.21103617 7.21114034 7.21114034 7.21103617 7.21083843 7.21056924 7.21026358 7.20996999 7.20974948 7.20967153 7.20980664 7.21021591 7.21093937 7.21198552 7.21332524 7.21489189 7.21658906 7.21830712 7.21995754 7.22156776 7.22156776 7.22156776 7.22156776 7.22156776 7.22109184 7.21971415 7.21805954 7.21630944 7.21458840 7.21301196 7.21167753 7.21065112 7.20995993 7.20959235 7.20950456 7.20963151 7.20989913 7.21023507 7.21057627 7.21087286 7.21108915 7.21120267 7.21120267 7.21108915 7.21087286 7.21057627 7.21023507 7.20989913 7.20963151 7.20950456 7.20959235 7.20995993 7.21065112 7.21167753 7.21301196 7.21458840 7.21630944 7.21805954 7.21971415 7.22109184 7.22156776 7.22156776 7.22156776 7.22156776 7.22109184 7.21971415 7.21805954 7.21630944 7.21458840 7.21301196 7.21167753 7.21065112 7.20995993 7.20959235 7.20950456 7.20963151 7.20989913 7.21023507 7.21057627 7.21087286 7.21108915 7.21120267 7.21120267 7.21108915 7.21087286 7.21057627 7.21023507 7.20989913 7.20963151 7.20950456 7.20959235 7.20995993 7.21065112 7.21167753 7.21301196 7.21458840 7.21630944 7.21805954 7.21971415 7.22109184 7.22156776 7.22156776 7.22156776 7.22156776 7.22156776 7.21995754 7.21830712 7.21658906 7.21489189 7.21332524 7.21198552 7.21093937 7.21021591 7.20980664 7.20967153 7.20974948 7.20996999 7.21026358 7.21056924 7.21083843 7.21103617 7.21114034 7.21114034 7.21103617 7.21083843 7.21056924 7.21026358 7.20996999 7.20974948 7.20967153 7.20980664 7.21021591 7.21093937 7.21198552 7.21332524 7.21489189 7.21658906 7.21830712 7.21995754 7.22156776 7.22156776 7.22156776 7.22156776 7.22156776 7.22156776 7.22025887 7.21876156 7.21713135 7.21548588 7.21394153 7.21259556 7.21151580 7.21073477 7.21024961 7.21002733 7.21001421 7.21014655 7.21036043 7.21059888 7.21081601 7.21097841 7.21106474 7.21106474 7.21097841 7.21081601 7.21059888 7.21036043 7.21014655 7.21001421 7.21002733 7.21024961 7.21073477 7.21151580 7.21259556 7.21394153 7.21548588 7.21713135 7.21876156 7.22025887 7.22156776 7.22156776 7.22156776 7.22156776 7.22156776 7.22156776 7.22072997 7.21943967 7.21792006 7.21634619 7.21483876 7.21349274 7.21237595 7.21152464 7.21094305 7.21060749 7.21047415 7.21048870 7.21059505 7.21074210 7.21088795 7.21100167 7.21106335 7.21106335 7.21100167 7.21088795 7.21074210 7.21059505 7.21048870 7.21047415 7.21060749 7.21094305 7.21152464 7.21237595 7.21349274 7.21483876 7.21634619 7.21792006 7.21943967 7.22072997 7.22156776 7.22156776 7.22156776 7.22156776 7.22156776 7.22156776 7.22156776 7.22037420 7.21892239 7.21743129 7.21597910 7.21464819 7.21350401 7.21258546 7.21190436 7.21144724 7.21118158 7.21106410 7.21104822 7.21109013 7.21115313 7.21120981 7.21124245 7.21124245 7.21120981 7.21115313 7.21109013 7.21104822 7.21106410 7.21118158 7.21144724 7.21190436 7.21258546 7.21350401 7.21464819 7.21597910 7.21743129 7.21892239 7.22037420 7.22156776 7.22156776 7.22156776 7.22156776 7.22156776 7.22156776 7.22156776 7.22156776 7.22156776 7.22004163 7.21867455 7.21730625 7.21601461 7.21486603 7.21389922 7.21313366 7.21256573 7.21217419 7.21192761 7.21178988 7.21172524 7.21170295 7.21170014 7.21170222 7.21170222 7.21170014 7.21170295 7.21172524 7.21178988 7.21192761 7.21217419 7.21256573 7.21313366 7.21389922 7.21486603 7.21601461 7.21730625 7.21867455 7.22004163 7.22156776 7.22156776 7.22156776 7.22156776 7.22156776 7.22156776 7.22156776 7.22156776 7.22156776 7.22156776 7.22093683 7.21999938 7.21875039 7.21752365 7.21640636 7.21542314 7.21460403 7.21395329 7.21345917 7.21310278 7.21285866 7.21269865 7.21259784 7.21253883 7.21251160 7.21251160 7.21253883 7.21259784 7.21269865 7.21285866 7.21310278 7.21345917 7.21395329 7.21460403 7.21542314 7.21640636 7.21752365 7.21875039 7.21999938 7.22093683 7.22156776 7.22156776 7.22156776 7.22156776 7.22156776 7.22156776 7.22156776 7.22156776 7.22156776 7.22156776 7.22156776 7.22156776 7.22024372 7.21907956 7.21805144 7.21708829 7.21625834 7.21556554 7.21500385 7.21456991 7.21424831 7.21401545 7.21385024 7.21374226 7.21368872 7.21368872 7.21374226 7.21385024 7.21401545 7.21424831 7.21456991 7.21500385 7.21556554 7.21625834 7.21708829 7.21805144 7.21907956 7.22024372 7.22156776 7.22156776 7.22156776 7.22156776 7.22156776 7.22156776 7.22156776 7.22156776 7.22156776 7.22156776 7.22156776 7.22156776 7.22156776 7.22156776 7.22156776 7.22051772 7.21973781 7.21880248 7.21801467 7.21732605 7.21673391 7.21626340 7.21590517 7.21563153 7.21541855 7.21526806 7.21519070 7.21519070 7.21526806 7.21541855 7.21563153 7.21590517 7.21626340 7.21673391 7.21732605 7.21801467 7.21880248 7.21973781 7.22051772 7.22156776 7.22156776 7.22156776 7.22156776 7.22156776 7.22156776 7.22156776 7.22156776 7.22156776 7.22156776 7.22156776 7.22156776 7.22156776 7.22156776 7.22156776 7.22156776 7.22156776 7.22156776 7.22043312 7.21978622 7.21913108 7.21853344 7.21807752 7.21773892 7.21746632 7.21721237 7.21701511 7.21691269 7.21691269 7.21701511 7.21721237 7.21746632 7.21773892 7.21807752 7.21853344 7.21913108 7.21978622 7.22043312 7.22156776 7.22156776 7.22156776 7.22156776 7.22156776 7.22156776 7.22156776 7.22156776 7.22156776 7.22156776 7.22156776 7.22156776 7.22156776 7.22156776 7.22156776 7.22156776 7.22156776 7.22156776 7.22156776 7.22156776 7.22156776 7.22156776 7.22080206 7.22022920 7.21988138 7.21964896 7.21943922 7.21909824 7.21882322 7.21869114 7.21869114 7.21882322 7.21909824 7.21943922 7.21964896 7.21988138 7.22022920 7.22080206 7.22156776 7.22156776 7.22156776 7.22156776 7.22156776 7.22156776 7.22156776 7.22156776 7.22156776 7.22156776 7.22156776 7.22156776 7.22156776 7.22156776 7.22156776 7.22156776 7.22156776 7.22156776 7.22156776 7.22156776 7.22156776 7.22156776 7.22156776 7.22156776 7.22156776 7.22156776 7.22156776 7.22156776 7.22156776 7.22084119 7.22045164 7.22030962 7.22030962 7.22045164 7.22084119 7.22156776 7.22156776 7.22156776 7.22156776 7.22156776 7.22156776 7.22156776 7.22156776 7.22156776 7.22156776 7.22156776 7.22156776 7.22156776 7.22156776 7.22156776 7.22156776 7.22156776 7.22156776 7.22156776 7.22156776 7.22156776 7.22156776 7.22156776 7.22156776 7.22156776 7.22156776 7.22156776 7.22156776 7.22156776 7.22156776 7.22156776 7.22156776 7.22156776 7.22156776 7.22156776 7.22156776 7.22156776 7.22156776 7.22156776 7.22156776 7.22156776 7.22156776 7.22156776 7.22156776 7.22156776 7.22156776 7.22156776 7.22156776 7.22156776 7.22156776 7.22156776 7.22156776 7.22156776 7.22156776 7.22156776 7.22156776 7.22156776 7.22156776 7.22156776 7.22156776 7.22156776 7.22156776 7.22156776 7.22156776 7.22156776 7.22156776 7.22156776 7.22156776 7.22156776 7.22156776 7.22156776 7.22156776 7.22156776 7.22156776 7.22156776 7.22156776 7.22156776 7.22156776 7.22156776 7.22156776 7.22156776 7.22156776 7.22156776 7.22156776 7.22156776 7.22156776 7.22156776 7.22156776 7.22156776 7.22156776 7.22156776 7.22156776 7.22156776 7.22156776 7.22156776 7.22156776 7.22156776 7.22156776 7.22156776 7.22156776 7.22156776 7.22156776 7.22156776 7.22156776 7.22156776 7.22156776 7.22156776 7.22156776 7.22156776 7.22156776 7.22156776 7.22156776 7.22156776 7.22156776 7.22156776 7.22156776 7.22156776 7.22156776 7.22156776 7.22156776 7.22156776 7.22156776 7.22156776 7.22156776 7.22156776 7.22156776 7.22156776 7.22156776 7.22156776 7.22156776 7.22156776 7.22156776 7.22156776 7.22156776 7.22156776 7.22156776 7.22156776 7.22156776 7.22156776 7.22156776 7.22156776 7.22156776 7.22156776 7.22156776 7.22156776 7.22156776 7.22156776 7.22156776 7.22156776 7.22156776 7.22156776 7.22156776 7.22156776 7.22156776 7.22156776 7.22156776 7.22156776 7.22156776 7.22156776 7.22156776 7.22156776 7.22156776 7.22156776 7.22156776 7.22156776 7.22156776 7.22156776 7.22156776 7.22156776 7.22156776 7.22156776 7.22156776 7.22156776 7.22156776 7.22156776 7.22156776 7.22156776 7.22156776 7.22156776 7.22156776 7.22156776 7.22156776 7.22156776 7.22156776 7.22156776 7.22156776 7.22156776 7.22156776 7.22156776 7.22156776 7.22156776 7.22156776 7.22156776 7.22156776 7.22156776 7.22156776 7.22156776 7.22156776 7.22156776 7.22156776 7.22156776 7.22156776 7.22156776 7.22156776 7.22156776 7.22156776 7.22156776 7.22156776 7.22156776 7.22156776 7.22156776 7.22156776 7.22156776 7.22156776 7.22156776 7.22156776 7.22156776 7.22156776 7.22156776 7.22156776 7.22156776 7.22156776 7.22156776 7.22156776 7.22156776 7.22156776 7.22156776 7.22156776 7.22156776 7.22156776 7.22156776 7.22156776 7.22156776 7.22156776 7.22156776 7.22156776 7.22156776 7.22156776 7.22156776 7.22156776 7.22156776 7.22156776 7.22156776 7.22156776 7.22156776 7.22156776 7.22156776 7.22156776 7.22156776 7.22156776 7.22156776 7.22156776 7.22156776 7.22156776 7.22156776 7.22156776 7.22156776 7.22156776 7.22156776 7.22156776 7.22156776 7.22156776 7.22156776 7.22156776 7.22156776 7.22156776 7.22156776 7.22156776 7.22156776 7.22156776 7.22156776 7.22156776 7.22156776 7.22156776 7.22156776 7.22156776 7.22156776 7.22156776 7.22156776 7.22156776 7.22156776 7.22156776 7.22156776 7.22156776 7.22156776 7.22156776 7.22156776 7.22156776 7.22156776 7.22156776 7.22156776 7.22156776 7.22156776 7.22156776 7.22156776 7.22156776 7.22156776 7.22156776 7.22156776 7.22156776 7.22156776 7.22156776 7.22156776 7.22156776 7.22156776 7.22156776 7.22156776 7.22156776 7.22156776 7.22156776 7.22156776 7.22156776 7.22156776 7.22156776 7.22156776 7.22156776 7.22156776 7.22156776 7.22156776 7.22156776 7.22156776 7.22156776 7.22156776 7.22156776 7.22156776 7.22156776 7.22156776 7.22156776 7.22156776 7.22156776 7.22156776 7.22156776 7.22156776 7.22156776 7.22156776 7.22156776 7.22156776 