# vtk DataFile Version 3.0
VTK - Matlab export
ASCII
DATASET STRUCTURED_POINTS
DIMENSIONS 40 40 1
SPACING 1 1 1
ORIGIN 0 0 0
POINT_DATA 1600
SCALARS lambda-2 float 1
LOOKUP_TABLE default
7.22156776 7.22156776 7.22156776 7.22156776 7.22156776 7.22156776 7.22156776 7.22156776 7.22156776 7.22156776 7.22156776 7.22156776 7.22156776 7.22156776 7.22156776 7.22156776 7.22156776 7.22156776 7.22156776 7.22156776 7.22156776 7.22156776 7.22156776 7.22156776 7.22156776 7.22156776 7.22156776 7.22156776 7.22156776 7.22156776 7.22156776 7.22156776 7.22156776 7.22156776 7.22156776 7.22156776 7.22156776 7.22156776 7.22156776 7.22156776 7.22156776 7.22156776 7.22156776 7.22156776 7.22156776 7.22156776 7.22156776 7.22156776 7.22156776 7.22156776 7.22156776 7.22156776 7.22156776 7.22156776 7.22156776 7.22156776 7.22156776 7.22156776 7.22156776 7.22156776 7.22156776 7.22156776 7.22156776 7.22156776 7.22156776 7.22156776 7.22156776 7.22156776 7.22156776 7.22156776 7.22156776 7.22156776 7.22156776 7.22156776 7.22156776 7.22156776 7.22156776 7.22156776 7.22156776 7.22156776 7.22156776 7.22156776 7.22156776 7.22156776 7.22156776 7.22156776 7.22156776 7.22156776 7.22156776 7.22156776 7.22156776 7.22156776 7.22156776 7.22156776 7.22156776 7.22156776 7.22156776 7.22156776 7.22156776 7.22156776 7.22156776 7.22156776 7.22156776 7.22156776 7.22156776 7.22156776 7.22156776 7.22156776 7.22156776 7.22156776 7.22156776 7.22156776 7.22156776 7.22156776 7.22156776 7.22156776 7.22156776 7.22156776 7.22156776 7.22156776 7.22156776 7.22156776 7.22156776 7.22156776 7.22156776 7.22156776 7.22156776 7.22156776 7.22156776 7.22156776 7.22156776 7.22156776 7.22156776 7.22156776 7.22156776 7.22156776 7.22156776 7.22156776 7.22156776 7.22156776 7.22156776 7.22156776 7.22156776 7.22156776 7.22156776 7.22156776 7.22156776 7.22156776 7.22156776 7.22156776 7.22156776 7.22156776 7.22156776 7.22156776 7.22156776 7.22156776 7.22156776 7.22156776 7.22156776 7.22156776 7.22156776 7.22156776 7.22156776 7.22156776 7.22156776 7.22156776 7.22156776 7.22156776 7.22156776 7.22156776 7.22156776 7.22156776 7.22156776 7.22156776 7.22156776 7.22156776 7.22156776 7.22156776 7.22156776 7.22156776 7.22156776 7.22156776 7.22156776 7.22156776 7.22156776 7.22156776 7.22156776 7.22156776 7.22156776 7.22156776 7.22156776 7.22156776 7.22156776 7.22156776 7.22156776 7.22156776 7.22156776 7.22156776 7.22156776 7.22156776 7.22156776 7.22156776 7.22156776 7.22156776 7.22156776 7.22156776 7.22156776 7.22156776 7.22156776 7.22156776 7.22156776 7.22156776 7.22156776 7.22156776 7.22156776 7.22156776 7.22156776 7.22156776 7.22156776 7.22156776 7.22156776 7.22156776 7.22156776 7.22156776 7.22156776 7.22156776 7.22156776 7.22156776 7.22156776 7.22156776 7.22156776 7.22156776 7.22156776 7.22156776 7.22156776 7.22156776 7.22156776 7.22156776 7.22156776 7.22156776 7.22156776 7.22156776 7.22156776 7.22156776 7.22156776 7.22156776 7.22156776 7.22156776 7.22156776 7.22156776 7.22156776 7.22156776 7.22156776 7.22156776 7.22156776 7.22156776 7.22156776 7.22156776 7.22156776 7.22156776 7.22156776 7.22156776 7.22156776 7.22156776 7.22156776 7.22156776 7.22156776 7.22156776 7.22156776 7.22156776 7.22156776 7.22156776 7.22156776 7.22156776 7.22156776 7.22156776 7.22156776 7.22156776 7.22156776 7.22156776 7.22156776 7.22156776 7.22156776 7.22156776 7.22156776 7.22156776 7.22156776 7.22156776 7.22156776 7.22156776 7.22156776 7.22156776 7.22156776 7.22156776 7.22156776 7.22156776 7.22156776 7.22156776 7.22156776 7.22156776 7.22156776 7.22156776 7.22156776 7.22156776 7.22156776 7.22156776 7.22156776 7.22156776 7.22156776 7.22156776 7.22156776 7.22156776 7.22156776 7.22156776 7.22156776 7.22156776 7.22156776 7.22156776 7.22156776 7.22156776 7.22156776 7.22156776 7.22156776 7.22156776 7.22156776 7.22156776 7.22156776 7.22156776 7.22156776 7.22156776 7.22156776 7.22156776 7.22156776 7.22156776 7.22156776 7.22156776 7.22156776 7.21869106 7.21706761 7.21645210 7.21645210 7.21706761 7.21869106 7.22156776 7.22156776 7.22156776 7.22156776 7.22156776 7.22156776 7.22156776 7.22156776 7.22156776 7.22156776 7.22156776 7.22156776 7.22156776 7.22156776 7.22156776 7.22156776 7.22156776 7.22156776 7.22156776 7.22156776 7.22156776 7.22156776 7.22156776 7.22156776 7.22156776 7.22156776 7.22156776 7.22156776 7.22156776 7.21853227 7.21628091 7.21500568 7.21424442 7.21355824 7.21226165 7.21115103 7.21060149 7.21060149 7.21115103 7.21226165 7.21355824 7.21424442 7.21500568 7.21628091 7.21853227 7.22156776 7.22156776 7.22156776 7.22156776 7.22156776 7.22156776 7.22156776 7.22156776 7.22156776 7.22156776 7.22156776 7.22156776 7.22156776 7.22156776 7.22156776 7.22156776 7.22156776 7.22156776 7.22156776 7.22156776 7.22156776 7.22156776 7.21708145 7.21464897 7.21229309 7.21026264 7.20889755 7.20804299 7.20739942 7.20669873 7.20608549 7.20575046 7.20575046 7.20608549 7.20669873 7.20739942 7.20804299 7.20889755 7.21026264 7.21229309 7.21464897 7.21708145 7.22156776 7.22156776 7.22156776 7.22156776 7.22156776 7.22156776 7.22156776 7.22156776 7.22156776 7.22156776 7.22156776 7.22156776 7.22156776 7.22156776 7.22156776 7.22156776 7.22156776 7.22156776 7.21738176 7.21446859 7.21113698 7.20865735 7.20677939 7.20540540 7.20456151 7.20411952 7.20387188 7.20365325 7.20345425 7.20333685 7.20333685 7.20345425 7.20365325 7.20387188 7.20411952 7.20456151 7.20540540 7.20677939 7.20865735 7.21113698 7.21446859 7.21738176 7.22156776 7.22156776 7.22156776 7.22156776 7.22156776 7.22156776 7.22156776 7.22156776 7.22156776 7.22156776 7.22156776 7.22156776 7.22156776 7.22156776 7.22156776 7.21629247 7.21199260 7.20870063 7.20609104 7.20435315 7.20335059 7.20289719 7.20285017 7.20304731 7.20332131 7.20354973 7.20369054 7.20375366 7.20375366 7.20369054 7.20354973 7.20332131 7.20304731 7.20285017 7.20289719 7.20335059 7.20435315 7.20609104 7.20870063 7.21199260 7.21629247 7.22156776 7.22156776 7.22156776 7.22156776 7.22156776 7.22156776 7.22156776 7.22156776 7.22156776 7.22156776 7.22156776 7.22156776 7.21886718 7.21514566 7.21065587 7.20695551 7.20439557 7.20289546 7.20232453 7.20243792 7.20297576 7.20372804 7.20452832 7.20524947 7.20581126 7.20618281 7.20636491 7.20636491 7.20618281 7.20581126 7.20524947 7.20452832 7.20372804 7.20297576 7.20243792 7.20232453 7.20289546 7.20439557 7.20695551 7.21065587 7.21514566 7.21886718 7.22156776 7.22156776 7.22156776 7.22156776 7.22156776 7.22156776 7.22156776 7.22156776 7.22156776 7.22156776 7.21507271 7.20999291 7.20592844 7.20322794 7.20193499 7.20181301 7.20252176 7.20370627 7.20507135 7.20641289 7.20760514 7.20857837 7.20930271 7.20977562 7.21000748 7.21000748 7.20977562 7.20930271 7.20857837 7.20760514 7.20641289 7.20507135 7.20370627 7.20252176 7.20181301 7.20193499 7.20322794 7.20592844 7.20999291 7.21507271 7.22156776 7.22156776 7.22156776 7.22156776 7.22156776 7.22156776 7.22156776 7.22156776 7.22156776 7.21619809 7.21038884 7.20563179 7.20248355 7.20110649 7.20127115 7.20251391 7.20433492 7.20632310 7.20820513 7.20983636 7.21116230 7.21217921 7.21290670 7.21337154 7.21359722 7.21359722 7.21337154 7.21290670 7.21217921 7.21116230 7.20983636 7.20820513 7.20632310 7.20433492 7.20251391 7.20127115 7.20110649 7.20248355 7.20563179 7.21038884 7.21619809 7.22156776 7.22156776 7.22156776 7.22156776 7.22156776 7.22156776 7.22156776 7.21756404 7.21193271 7.20642916 7.20238213 7.20038989 7.20040599 7.20193117 7.20429595 7.20690402 7.20935154 7.21143406 7.21309365 7.21435406 7.21527074 7.21590193 7.21629543 7.21648398 7.21648398 7.21629543 7.21590193 7.21527074 7.21435406 7.21309365 7.21143406 7.20935154 7.20690402 7.20429595 7.20193117 7.20040599 7.20038989 7.20238213 7.20642916 7.21193271 7.21756404 7.22156776 7.22156776 7.22156776 7.22156776 7.22156776 7.22156776 7.21529875 7.20894259 7.20359858 7.20029089 7.19940576 7.20063440 7.20323126 7.20637528 7.20943426 7.21205457 7.21411939 7.21565690 7.21675696 7.21751795 7.21802197 7.21832787 7.21847220 7.21847220 7.21832787 7.21802197 7.21751795 7.21675696 7.21565690 7.21411939 7.21205457 7.20943426 7.20637528 7.20323126 7.20063440 7.19940576 7.20029089 7.20359858 7.20894259 7.21529875 7.22156776 7.22156776 7.22156776 7.22156776 7.22156776 7.22156776 7.21387214 7.20703568 7.20184903 7.19914569 7.19910833 7.20120500 7.20450814 7.20810581 7.21136749 7.21399907 7.21595988 7.21734357 7.21828467 7.21890687 7.21930392 7.21953846 7.21964733 7.21964733 7.21953846 7.21930392 7.21890687 7.21828467 7.21734357 7.21595988 7.21399907 7.21136749 7.20810581 7.20450814 7.20120500 7.19910833 7.19914569 7.20184903 7.20703568 7.21387214 7.22156776 7.22156776 7.22156776 7.22156776 7.22156776 7.21921272 7.21269083 7.20601361 7.20101088 7.19866228 7.19908307 7.20162650 7.20527233 7.20906891 7.21239613 7.21499822 7.21687778 7.21816289 7.21900989 7.21955352 7.21989168 7.22008759 7.22017746 7.22017746 7.22008759 7.21989168 7.21955352 7.21900989 7.21816289 7.21687778 7.21499822 7.21239613 7.20906891 7.20527233 7.20162650 7.19908307 7.19866228 7.20101088 7.20601361 7.21269083 7.21921272 7.22156776 7.22156776 7.22156776 7.22156776 7.21921272 7.21269083 7.20601361 7.20101088 7.19866228 7.19908307 7.20162650 7.20527233 7.20906891 7.21239613 7.21499822 7.21687778 7.21816289 7.21900989 7.21955352 7.21989168 7.22008759 7.22017746 7.22017746 7.22008759 7.21989168 7.21955352 7.21900989 7.21816289 7.21687778 7.21499822 7.21239613 7.20906891 7.20527233 7.20162650 7.19908307 7.19866228 7.20101088 7.20601361 7.21269083 7.21921272 7.22156776 7.22156776 7.22156776 7.22156776 7.22156776 7.21387214 7.20703568 7.20184903 7.19914569 7.19910833 7.20120500 7.20450814 7.20810581 7.21136749 7.21399907 7.21595988 7.21734357 7.21828467 7.21890687 7.21930392 7.21953846 7.21964733 7.21964733 7.21953846 7.21930392 7.21890687 7.21828467 7.21734357 7.21595988 7.21399907 7.21136749 7.20810581 7.20450814 7.20120500 7.19910833 7.19914569 7.20184903 7.20703568 7.21387214 7.22156776 7.22156776 7.22156776 7.22156776 7.22156776 7.22156776 7.21529875 7.20894259 7.20359858 7.20029089 7.19940576 7.20063440 7.20323126 7.20637528 7.20943426 7.21205457 7.21411939 7.21565690 7.21675696 7.21751795 7.21802197 7.21832787 7.21847220 7.21847220 7.21832787 7.21802197 7.21751795 7.21675696 7.21565690 7.21411939 7.21205457 7.20943426 7.20637528 7.20323126 7.20063440 7.19940576 7.20029089 7.20359858 7.20894259 7.21529875 7.22156776 7.22156776 7.22156776 7.22156776 7.22156776 7.22156776 7.21756404 7.21193271 7.20642916 7.20238213 7.20038989 7.20040599 7.20193117 7.20429595 7.20690402 7.20935154 7.21143406 7.21309365 7.21435406 7.21527074 7.21590193 7.21629543 7.21648398 7.21648398 7.21629543 7.21590193 7.21527074 7.21435406 7.21309365 7.21143406 7.20935154 7.20690402 7.20429595 7.20193117 7.20040599 7.20038989 7.20238213 7.20642916 7.21193271 7.21756404 7.22156776 7.22156776 7.22156776 7.22156776 7.22156776 7.22156776 7.22156776 7.21619809 7.21038884 7.20563179 7.20248355 7.20110649 7.20127115 7.20251391 7.20433492 7.20632310 7.20820513 7.20983636 7.21116230 7.21217921 7.21290670 7.21337154 7.21359722 7.21359722 7.21337154 7.21290670 7.21217921 7.21116230 7.20983636 7.20820513 7.20632310 7.20433492 7.20251391 7.20127115 7.20110649 7.20248355 7.20563179 7.21038884 7.21619809 7.22156776 7.22156776 7.22156776 7.22156776 7.22156776 7.22156776 7.22156776 7.22156776 7.22156776 7.21507271 7.20999291 7.20592844 7.20322794 7.20193499 7.20181301 7.20252176 7.20370627 7.20507135 7.20641289 7.20760514 7.20857837 7.20930271 7.20977562 7.21000748 7.21000748 7.20977562 7.20930271 7.20857837 7.20760514 7.20641289 7.20507135 7.20370627 7.20252176 7.20181301 7.20193499 7.20322794 7.20592844 7.20999291 7.21507271 7.22156776 7.22156776 7.22156776 7.22156776 7.22156776 7.22156776 7.22156776 7.22156776 7.22156776 7.22156776 7.21886718 7.21514566 7.21065587 7.20695551 7.20439557 7.20289546 7.20232453 7.20243792 7.20297576 7.20372804 7.20452832 7.20524947 7.20581126 7.20618281 7.20636491 7.20636491 7.20618281 7.20581126 7.20524947 7.20452832 7.20372804 7.20297576 7.20243792 7.20232453 7.20289546 7.20439557 7.20695551 7.21065587 7.21514566 7.21886718 7.22156776 7.22156776 7.22156776 7.22156776 7.22156776 7.22156776 7.22156776 7.22156776 7.22156776 7.22156776 7.22156776 7.22156776 7.21629247 7.21199260 7.20870063 7.20609104 7.20435315 7.20335059 7.20289719 7.20285017 7.20304731 7.20332131 7.20354973 7.20369054 7.20375366 7.20375366 7.20369054 7.20354973 7.20332131 7.20304731 7.20285017 7.20289719 7.20335059 7.20435315 7.20609104 7.20870063 7.21199260 7.21629247 7.22156776 7.22156776 7.22156776 7.22156776 7.22156776 7.22156776 7.22156776 7.22156776 7.22156776 7.22156776 7.22156776 7.22156776 7.22156776 7.22156776 7.22156776 7.21738176 7.21446859 7.21113698 7.20865735 7.20677939 7.20540540 7.20456151 7.20411952 7.20387188 7.20365325 7.20345425 7.20333685 7.20333685 7.20345425 7.20365325 7.20387188 7.20411952 7.20456151 7.20540540 7.20677939 7.20865735 7.21113698 7.21446859 7.21738176 7.22156776 7.22156776 7.22156776 7.22156776 7.22156776 7.22156776 7.22156776 7.22156776 7.22156776 7.22156776 7.22156776 7.22156776 7.22156776 7.22156776 7.22156776 7.22156776 7.22156776 7.22156776 7.21708145 7.21464897 7.21229309 7.21026264 7.20889755 7.20804299 7.20739942 7.20669873 7.20608549 7.20575046 7.20575046 7.20608549 7.20669873 7.20739942 7.20804299 7.20889755 7.21026264 7.21229309 7.21464897 7.21708145 7.22156776 7.22156776 7.22156776 7.22156776 7.22156776 7.22156776 7.22156776 7.22156776 7.22156776 7.22156776 7.22156776 7.22156776 7.22156776 7.22156776 7.22156776 7.22156776 7.22156776 7.22156776 7.22156776 7.22156776 7.22156776 7.22156776 7.21853227 7.21628091 7.21500568 7.21424442 7.21355824 7.21226165 7.21115103 7.21060149 7.21060149 7.21115103 7.21226165 7.21355824 7.21424442 7.21500568 7.21628091 7.21853227 7.22156776 7.22156776 7.22156776 7.22156776 7.22156776 7.22156776 7.22156776 7.22156776 7.22156776 7.22156776 7.22156776 7.22156776 7.22156776 7.22156776 7.22156776 7.22156776 7.22156776 7.22156776 7.22156776 7.22156776 7.22156776 7.22156776 7.22156776 7.22156776 7.22156776 7.22156776 7.22156776 7.22156776 7.22156776 7.21869106 7.21706761 7.21645210 7.21645210 7.21706761 7.21869106 7.22156776 7.22156776 7.22156776 7.22156776 7.22156776 7.22156776 7.22156776 7.22156776 7.22156776 7.22156776 7.22156776 7.22156776 7.22156776 7.22156776 7.22156776 7.22156776 7.22156776 7.22156776 7.22156776 7.22156776 7.22156776 7.22156776 7.22156776 7.22156776 7.22156776 7.22156776 7.22156776 7.22156776 7.22156776 7.22156776 7.22156776 7.22156776 7.22156776 7.22156776 7.22156776 7.22156776 7.22156776 7.22156776 7.22156776 7.22156776 7.22156776 7.22156776 7.22156776 7.22156776 7.22156776 7.22156776 7.22156776 7.22156776 7.22156776 7.22156776 7.22156776 7.22156776 7.22156776 7.22156776 7.22156776 7.22156776 7.22156776 7.22156776 7.22156776 7.22156776 7.22156776 7.22156776 7.22156776 7.22156776 7.22156776 7.22156776 7.22156776 7.22156776 7.22156776 7.22156776 7.22156776 7.22156776 7.22156776 7.22156776 7.22156776 7.22156776 7.22156776 7.22156776 7.22156776 7.22156776 7.22156776 7.22156776 7.22156776 7.22156776 7.22156776 7.22156776 7.22156776 7.22156776 7.22156776 7.22156776 7.22156776 7.22156776 7.22156776 7.22156776 7.22156776 7.22156776 7.22156776 7.22156776 7.22156776 7.22156776 7.22156776 7.22156776 7.22156776 7.22156776 7.22156776 7.22156776 7.22156776 7.22156776 7.22156776 7.22156776 7.22156776 7.22156776 7.22156776 7.22156776 7.22156776 7.22156776 7.22156776 7.22156776 7.22156776 7.22156776 7.22156776 7.22156776 7.22156776 7.22156776 7.22156776 7.22156776 7.22156776 7.22156776 7.22156776 7.22156776 7.22156776 7.22156776 7.22156776 7.22156776 7.22156776 7.22156776 7.22156776 7.22156776 7.22156776 7.22156776 7.22156776 7.22156776 7.22156776 7.22156776 7.22156776 7.22156776 7.22156776 7.22156776 7.22156776 7.22156776 7.22156776 7.22156776 7.22156776 7.22156776 7.22156776 7.22156776 7.22156776 7.22156776 7.22156776 7.22156776 7.22156776 7.22156776 7.22156776 7.22156776 7.22156776 7.22156776 7.22156776 7.22156776 7.22156776 7.22156776 7.22156776 7.22156776 7.22156776 7.22156776 7.22156776 7.22156776 7.22156776 7.22156776 7.22156776 7.22156776 7.22156776 7.22156776 7.22156776 7.22156776 7.22156776 7.22156776 7.22156776 7.22156776 7.22156776 7.22156776 7.22156776 7.22156776 7.22156776 7.22156776 7.22156776 7.22156776 7.22156776 7.22156776 7.22156776 7.22156776 7.22156776 7.22156776 7.22156776 7.22156776 7.22156776 7.22156776 7.22156776 7.22156776 7.22156776 7.22156776 7.22156776 7.22156776 7.22156776 7.22156776 7.22156776 7.22156776 7.22156776 7.22156776 7.22156776 7.22156776 7.22156776 7.22156776 7.22156776 7.22156776 7.22156776 7.22156776 7.22156776 7.22156776 7.22156776 7.22156776 7.22156776 7.22156776 7.22156776 7.22156776 7.22156776 7.22156776 7.22156776 7.22156776 7.22156776 7.22156776 7.22156776 7.22156776 7.22156776 7.22156776 7.22156776 7.22156776 7.22156776 7.22156776 7.22156776 7.22156776 7.22156776 7.22156776 7.22156776 7.22156776 7.22156776 7.22156776 7.22156776 7.22156776 7.22156776 7.22156776 7.22156776 7.22156776 7.22156776 7.22156776 7.22156776 7.22156776 7.22156776 7.22156776 7.22156776 7.22156776 7.22156776 7.22156776 7.22156776 7.22156776 7.22156776 7.22156776 7.22156776 7.22156776 7.22156776 7.22156776 7.22156776 7.22156776 7.22156776 7.22156776 7.22156776 7.22156776 7.22156776 7.22156776 7.22156776 7.22156776 7.22156776 7.22156776 7.22156776 7.22156776 7.22156776 7.22156776 7.22156776 7.22156776 7.22156776 7.22156776 7.22156776 7.22156776 7.22156776 7.22156776 7.22156776 7.22156776 7.22156776 7.22156776 7.22156776 7.22156776 7.22156776 7.22156776 7.22156776 7.22156776 7.22156776 7.22156776 7.22156776 7.22156776 7.22156776 7.22156776 7.22156776 7.22156776 7.22156776 7.22156776 7.22156776 7.22156776 7.22156776 7.22156776 7.22156776 7.22156776 7.22156776 7.22156776 7.22156776 7.22156776 7.22156776 7.22156776 7.22156776 