# vtk DataFile Version 3.0
VTK - Matlab export
ASCII
DATASET STRUCTURED_POINTS
DIMENSIONS 40 40 1
SPACING 1 1 1
ORIGIN 0 0 0
POINT_DATA 1600
SCALARS Temperature float 1
LOOKUP_TABLE default
300.00000000 300.00000000 300.00000000 300.00000000 300.00000000 300.00000000 300.00000000 300.00000000 300.00000000 300.00000000 300.00000000 300.00000000 300.00000000 300.00000000 300.00000000 300.00000000 300.00000000 300.00000000 300.00000000 300.00000000 300.00000000 300.00000000 300.00000000 300.00000000 300.00000000 300.00000000 300.00000000 300.00000000 300.00000000 300.00000000 300.00000000 300.00000000 300.00000000 300.00000000 300.00000000 300.00000000 300.00000000 300.00000000 300.00000000 300.00000000 300.00000000 300.00000000 300.00000000 300.00000000 300.00000000 300.00000000 300.00000000 300.00000000 300.00000000 300.00000000 300.00000000 300.00000000 300.00000000 300.00000000 300.00000000 300.00000000 300.00000000 300.00000000 300.00000000 300.00000000 300.00000000 300.00000000 300.00000000 300.00000000 300.00000000 300.00000000 300.00000000 300.00000000 300.00000000 300.00000000 300.00000000 300.00000000 300.00000000 300.00000000 300.00000000 300.00000000 300.00000000 300.00000000 300.00000000 300.00000000 300.00000000 300.00000000 300.00000000 300.00000000 300.00000000 300.00000000 300.00000000 300.00000000 300.00000000 300.00000000 300.00000000 300.00000000 300.00000000 300.00000000 300.00000000 300.00000000 300.00000000 300.00000000 300.00000000 300.00000000 300.00000000 300.00000000 300.00000000 300.00000000 300.00000000 300.00000000 300.00000000 300.00000000 300.00000000 300.00000000 300.00000000 300.00000000 300.00000000 300.00000000 300.00000000 300.00000000 300.00000000 300.00000000 300.00000000 300.00000000 300.00000000 300.00000000 300.00000000 300.00000000 300.00000000 300.00000000 300.00000000 300.00000000 300.00000000 300.00000000 300.00000000 300.00000000 300.00000000 300.00000000 300.00000000 300.00000000 300.00000000 300.00000000 300.00000000 300.00000000 300.00000000 300.00000000 300.00000000 300.00000000 300.00000000 300.00000000 300.00000000 300.00000000 300.00000000 300.00000000 300.00000000 300.00000000 300.00000000 300.00000000 300.00000000 300.00000000 300.00000000 300.00000000 300.00000000 300.00000000 300.00000000 300.00000000 300.00000000 300.00000000 300.00000000 300.00000000 300.00000000 300.00000000 300.00000000 300.00000000 300.00000000 300.00000000 300.00000000 300.00000000 300.00000000 300.00000000 300.00000000 300.00000000 300.00000000 300.00000000 300.00000000 300.00000000 300.00000000 300.00000000 300.00000000 300.00000000 300.00000000 300.00000000 300.00000000 300.00000000 300.00000000 300.00000000 300.00000000 300.00000000 300.00000000 300.00000000 300.00000000 300.00000000 300.00000000 300.00000000 300.00000000 300.00000000 300.00000000 300.00000000 300.00000000 300.00000000 300.00000000 300.00000000 300.00000000 300.00000000 300.00000000 300.00000000 300.00000000 300.00000000 300.00000000 300.00000000 300.00000000 300.00000000 300.00000000 300.00000000 300.00000000 300.00000000 300.00000000 300.00000000 300.00000000 300.00000000 300.00000000 300.00000000 300.00000000 300.00000000 300.00000000 300.00000000 300.00000000 300.00000000 300.00000000 300.00000000 300.00000000 300.00000000 300.00000000 300.00000000 300.00000000 300.00000000 300.00000000 300.00000000 300.00000000 300.00000000 300.00000000 300.00000000 300.00000000 300.00000000 300.00000000 300.00000000 300.00000000 300.00000000 300.00000000 300.00000000 300.00000000 300.00000000 300.00000000 300.00000000 300.00000000 300.00000000 300.00000000 300.00000000 300.00000000 300.00000000 300.00000000 300.00000000 300.00000000 300.00000000 300.00000000 300.00000000 300.00000000 300.00000000 300.00000000 300.00000000 300.00000000 300.00000000 300.00000000 300.00000000 300.00000000 300.00000000 300.00000000 300.00000000 300.00000000 300.00000000 300.00000000 300.00000000 300.00000000 300.00000000 300.00000000 300.00000000 300.00000000 300.00000000 300.00000000 300.00000000 300.00000000 300.00000000 300.00000000 300.00000000 300.00000000 300.00000000 300.00000000 300.00000000 300.00000000 300.00000000 300.00000000 300.00000000 300.00000000 300.00000000 300.00000000 300.00000000 300.00000000 300.00000000 300.00000000 300.00000000 300.00000000 300.00000000 300.00000000 300.00000000 300.00000000 300.00000000 300.00000000 300.00000000 300.00000000 300.00000000 300.00000000 300.00000000 300.00000000 300.00000000 300.00000000 300.00000000 300.00000000 300.00000000 300.00000000 300.00000000 300.00000000 391.21122714 448.85727679 471.08836320 471.08836320 448.85727679 391.21122714 300.00000000 300.00000000 300.00000000 300.00000000 300.00000000 300.00000000 300.00000000 300.00000000 300.00000000 300.00000000 300.00000000 300.00000000 300.00000000 300.00000000 300.00000000 300.00000000 300.00000000 300.00000000 300.00000000 300.00000000 300.00000000 300.00000000 300.00000000 300.00000000 300.00000000 300.00000000 300.00000000 300.00000000 300.00000000 393.23295611 462.10688370 493.93067640 506.45435626 519.07877103 556.90133818 591.31922192 606.70504585 606.70504585 591.31922192 556.90133818 519.07877103 506.45435626 493.93067640 462.10688370 393.23295611 300.00000000 300.00000000 300.00000000 300.00000000 300.00000000 300.00000000 300.00000000 300.00000000 300.00000000 300.00000000 300.00000000 300.00000000 300.00000000 300.00000000 300.00000000 300.00000000 300.00000000 300.00000000 300.00000000 300.00000000 300.00000000 300.00000000 433.99127792 497.63617239 554.56531961 599.85449811 622.03720407 630.16813135 636.54527369 649.36642705 661.48664463 666.92400916 666.92400916 661.48664463 649.36642705 636.54527369 630.16813135 622.03720407 599.85449811 554.56531961 497.63617239 433.99127792 300.00000000 300.00000000 300.00000000 300.00000000 300.00000000 300.00000000 300.00000000 300.00000000 300.00000000 300.00000000 300.00000000 300.00000000 300.00000000 300.00000000 300.00000000 300.00000000 300.00000000 300.00000000 424.63697002 498.81089642 577.20130712 620.93681784 647.06423063 664.14061176 671.83356377 674.29021670 675.94282166 678.97648068 681.77232766 682.95197144 682.95197144 681.77232766 678.97648068 675.94282166 674.29021670 671.83356377 664.14061176 647.06423063 620.93681784 577.20130712 498.81089642 424.63697002 300.00000000 300.00000000 300.00000000 300.00000000 300.00000000 300.00000000 300.00000000 300.00000000 300.00000000 300.00000000 300.00000000 300.00000000 300.00000000 300.00000000 300.00000000 447.90846753 556.16272028 616.85611571 653.61239027 670.55618087 678.20513076 682.27712195 683.88343695 684.30873700 684.56958873 685.07061619 685.51047797 685.67589182 685.67589182 685.51047797 685.07061619 684.56958873 684.30873700 683.88343695 682.27712195 678.20513076 670.55618087 653.61239027 616.85611571 556.16272028 447.90846753 300.00000000 300.00000000 300.00000000 300.00000000 300.00000000 300.00000000 300.00000000 300.00000000 300.00000000 300.00000000 300.00000000 300.00000000 380.98268000 477.41981350 577.25181965 639.42965102 667.51900603 679.31521087 683.49031603 684.93756388 685.57404306 685.78688341 685.83064594 685.85694089 685.91542685 685.96287614 685.97767661 685.97767661 685.96287614 685.91542685 685.85694089 685.83064594 685.78688341 685.57404306 684.93756388 683.49031603 679.31521087 667.51900603 639.42965102 577.25181965 477.41981350 380.98268000 300.00000000 300.00000000 300.00000000 300.00000000 300.00000000 300.00000000 300.00000000 300.00000000 300.00000000 300.00000000 477.40498693 586.80295319 647.36529953 673.69831110 682.46345308 685.05151121 685.72523782 685.90268809 685.96814576 685.98586488 685.98837917 685.99007527 685.99488453 685.99829118 685.99906917 685.99906917 685.99829118 685.99488453 685.99007527 685.98837917 685.98586488 685.96814576 685.90268809 685.72523782 685.05151121 682.46345308 673.69831110 647.36529953 586.80295319 477.40498693 300.00000000 300.00000000 300.00000000 300.00000000 300.00000000 300.00000000 300.00000000 300.00000000 300.00000000 447.49799773 577.09910093 647.33801920 675.13060719 683.55607560 685.51918216 685.91016934 685.98048858 685.99423331 685.99855476 685.99941151 685.99947416 685.99954155 685.99981193 685.99996107 685.99997962 685.99997962 685.99996107 685.99981193 685.99954155 685.99947416 685.99941151 685.99855476 685.99423331 685.98048858 685.91016934 685.51918216 683.55607560 675.13060719 647.33801920 577.09910093 447.49799773 300.00000000 300.00000000 300.00000000 300.00000000 300.00000000 300.00000000 300.00000000 420.22379292 553.46195622 638.63403192 673.55982615 683.54117521 685.63118541 685.95459231 685.99467602 685.99916256 685.99979750 685.99996726 685.99998579 685.99998579 685.99998716 685.99999675 685.99999983 685.99999983 685.99999983 685.99999983 685.99999675 685.99998716 685.99998579 685.99998579 685.99996726 685.99979750 685.99916256 685.99467602 685.95459231 685.63118541 683.54117521 673.55982615 638.63403192 553.46195622 420.22379292 300.00000000 300.00000000 300.00000000 300.00000000 300.00000000 300.00000000 478.87749271 607.02659753 664.96333532 682.05085176 685.47661315 685.95192158 685.99685931 685.99981948 685.99998082 685.99999675 685.99999983 685.99999983 685.99999983 685.99999983 686.00000000 686.00000000 686.00000000 686.00000000 686.00000000 686.00000000 685.99999983 685.99999983 685.99999983 685.99999983 685.99999675 685.99998082 685.99981948 685.99685931 685.95192158 685.47661315 682.05085176 664.96333532 607.02659753 478.87749271 300.00000000 300.00000000 300.00000000 300.00000000 300.00000000 300.00000000 508.04745886 629.41660625 673.75476304 684.18471556 685.81690914 685.98775029 685.99947186 685.99998545 685.99999966 686.00000000 686.00000000 686.00000000 686.00000000 686.00000000 686.00000000 686.00000000 686.00000000 686.00000000 686.00000000 686.00000000 686.00000000 686.00000000 686.00000000 686.00000000 686.00000000 685.99999966 685.99998545 685.99947186 685.98775029 685.81690914 684.18471556 673.75476304 629.41660625 508.04745886 300.00000000 300.00000000 300.00000000 300.00000000 300.00000000 371.09794071 537.77423663 641.64404401 677.24159668 684.83582814 685.89632218 685.99401738 685.99979440 685.99999675 686.00000000 686.00000000 686.00000000 686.00000000 686.00000000 686.00000000 686.00000000 686.00000000 686.00000000 686.00000000 686.00000000 686.00000000 686.00000000 686.00000000 686.00000000 686.00000000 686.00000000 686.00000000 685.99999675 685.99979440 685.99401738 685.89632218 684.83582814 677.24159668 641.64404401 537.77423663 371.09794071 300.00000000 300.00000000 300.00000000 300.00000000 371.09794071 537.77423663 641.64404401 677.24159668 684.83582814 685.89632218 685.99401738 685.99979440 685.99999675 686.00000000 686.00000000 686.00000000 686.00000000 686.00000000 686.00000000 686.00000000 686.00000000 686.00000000 686.00000000 686.00000000 686.00000000 686.00000000 686.00000000 686.00000000 686.00000000 686.00000000 686.00000000 685.99999675 685.99979440 685.99401738 685.89632218 684.83582814 677.24159668 641.64404401 537.77423663 371.09794071 300.00000000 300.00000000 300.00000000 300.00000000 300.00000000 508.04745886 629.41660625 673.75476304 684.18471556 685.81690914 685.98775029 685.99947186 685.99998545 685.99999966 686.00000000 686.00000000 686.00000000 686.00000000 686.00000000 686.00000000 686.00000000 686.00000000 686.00000000 686.00000000 686.00000000 686.00000000 686.00000000 686.00000000 686.00000000 686.00000000 685.99999966 685.99998545 685.99947186 685.98775029 685.81690914 684.18471556 673.75476304 629.41660625 508.04745886 300.00000000 300.00000000 300.00000000 300.00000000 300.00000000 300.00000000 478.87749271 607.02659753 664.96333532 682.05085176 685.47661315 685.95192158 685.99685931 685.99981948 685.99998082 685.99999675 685.99999983 685.99999983 685.99999983 685.99999983 686.00000000 686.00000000 686.00000000 686.00000000 686.00000000 686.00000000 685.99999983 685.99999983 685.99999983 685.99999983 685.99999675 685.99998082 685.99981948 685.99685931 685.95192158 685.47661315 682.05085176 664.96333532 607.02659753 478.87749271 300.00000000 300.00000000 300.00000000 300.00000000 300.00000000 300.00000000 420.22379292 553.46195622 638.63403192 673.55982615 683.54117521 685.63118541 685.95459231 685.99467602 685.99916256 685.99979750 685.99996726 685.99998579 685.99998579 685.99998716 685.99999675 685.99999983 685.99999983 685.99999983 685.99999983 685.99999675 685.99998716 685.99998579 685.99998579 685.99996726 685.99979750 685.99916256 685.99467602 685.95459231 685.63118541 683.54117521 673.55982615 638.63403192 553.46195622 420.22379292 300.00000000 300.00000000 300.00000000 300.00000000 300.00000000 300.00000000 300.00000000 447.49799773 577.09910093 647.33801920 675.13060719 683.55607560 685.51918216 685.91016934 685.98048858 685.99423331 685.99855476 685.99941151 685.99947416 685.99954155 685.99981193 685.99996107 685.99997962 685.99997962 685.99996107 685.99981193 685.99954155 685.99947416 685.99941151 685.99855476 685.99423331 685.98048858 685.91016934 685.51918216 683.55607560 675.13060719 647.33801920 577.09910093 447.49799773 300.00000000 300.00000000 300.00000000 300.00000000 300.00000000 300.00000000 300.00000000 300.00000000 300.00000000 477.40498693 586.80295319 647.36529953 673.69831110 682.46345308 685.05151121 685.72523782 685.90268809 685.96814576 685.98586488 685.98837917 685.99007527 685.99488453 685.99829118 685.99906917 685.99906917 685.99829118 685.99488453 685.99007527 685.98837917 685.98586488 685.96814576 685.90268809 685.72523782 685.05151121 682.46345308 673.69831110 647.36529953 586.80295319 477.40498693 300.00000000 300.00000000 300.00000000 300.00000000 300.00000000 300.00000000 300.00000000 300.00000000 300.00000000 300.00000000 380.98268000 477.41981350 577.25181965 639.42965102 667.51900603 679.31521087 683.49031603 684.93756388 685.57404306 685.78688341 685.83064594 685.85694089 685.91542685 685.96287614 685.97767661 685.97767661 685.96287614 685.91542685 685.85694089 685.83064594 685.78688341 685.57404306 684.93756388 683.49031603 679.31521087 667.51900603 639.42965102 577.25181965 477.41981350 380.98268000 300.00000000 300.00000000 300.00000000 300.00000000 300.00000000 300.00000000 300.00000000 300.00000000 300.00000000 300.00000000 300.00000000 300.00000000 447.90846753 556.16272028 616.85611571 653.61239027 670.55618087 678.20513076 682.27712195 683.88343695 684.30873700 684.56958873 685.07061619 685.51047797 685.67589182 685.67589182 685.51047797 685.07061619 684.56958873 684.30873700 683.88343695 682.27712195 678.20513076 670.55618087 653.61239027 616.85611571 556.16272028 447.90846753 300.00000000 300.00000000 300.00000000 300.00000000 300.00000000 300.00000000 300.00000000 300.00000000 300.00000000 300.00000000 300.00000000 300.00000000 300.00000000 300.00000000 300.00000000 424.63697002 498.81089642 577.20130712 620.93681784 647.06423063 664.14061176 671.83356377 674.29021670 675.94282166 678.97648068 681.77232766 682.95197144 682.95197144 681.77232766 678.97648068 675.94282166 674.29021670 671.83356377 664.14061176 647.06423063 620.93681784 577.20130712 498.81089642 424.63697002 300.00000000 300.00000000 300.00000000 300.00000000 300.00000000 300.00000000 300.00000000 300.00000000 300.00000000 300.00000000 300.00000000 300.00000000 300.00000000 300.00000000 300.00000000 300.00000000 300.00000000 300.00000000 433.99127792 497.63617239 554.56531961 599.85449811 622.03720407 630.16813135 636.54527369 649.36642705 661.48664463 666.92400916 666.92400916 661.48664463 649.36642705 636.54527369 630.16813135 622.03720407 599.85449811 554.56531961 497.63617239 433.99127792 300.00000000 300.00000000 300.00000000 300.00000000 300.00000000 300.00000000 300.00000000 300.00000000 300.00000000 300.00000000 300.00000000 300.00000000 300.00000000 300.00000000 300.00000000 300.00000000 300.00000000 300.00000000 300.00000000 300.00000000 300.00000000 300.00000000 393.23295611 462.10688370 493.93067640 506.45435626 519.07877103 556.90133818 591.31922192 606.70504585 606.70504585 591.31922192 556.90133818 519.07877103 506.45435626 493.93067640 462.10688370 393.23295611 300.00000000 300.00000000 300.00000000 300.00000000 300.00000000 300.00000000 300.00000000 300.00000000 300.00000000 300.00000000 300.00000000 300.00000000 300.00000000 300.00000000 300.00000000 300.00000000 300.00000000 300.00000000 300.00000000 300.00000000 300.00000000 300.00000000 300.00000000 300.00000000 300.00000000 300.00000000 300.00000000 300.00000000 300.00000000 391.21122714 448.85727679 471.08836320 471.08836320 448.85727679 391.21122714 300.00000000 300.00000000 300.00000000 300.00000000 300.00000000 300.00000000 300.00000000 300.00000000 300.00000000 300.00000000 300.00000000 300.00000000 300.00000000 300.00000000 300.00000000 300.00000000 300.00000000 300.00000000 300.00000000 300.00000000 300.00000000 300.00000000 300.00000000 300.00000000 300.00000000 300.00000000 300.00000000 300.00000000 300.00000000 300.00000000 300.00000000 300.00000000 300.00000000 300.00000000 300.00000000 300.00000000 300.00000000 300.00000000 300.00000000 300.00000000 300.00000000 300.00000000 300.00000000 300.00000000 300.00000000 300.00000000 300.00000000 300.00000000 300.00000000 300.00000000 300.00000000 300.00000000 300.00000000 300.00000000 300.00000000 300.00000000 300.00000000 300.00000000 300.00000000 300.00000000 300.00000000 300.00000000 300.00000000 300.00000000 300.00000000 300.00000000 300.00000000 300.00000000 300.00000000 300.00000000 300.00000000 300.00000000 300.00000000 300.00000000 300.00000000 300.00000000 300.00000000 300.00000000 300.00000000 300.00000000 300.00000000 300.00000000 300.00000000 300.00000000 300.00000000 300.00000000 300.00000000 300.00000000 300.00000000 300.00000000 300.00000000 300.00000000 300.00000000 300.00000000 300.00000000 300.00000000 300.00000000 300.00000000 300.00000000 300.00000000 300.00000000 300.00000000 300.00000000 300.00000000 300.00000000 300.00000000 300.00000000 300.00000000 300.00000000 300.00000000 300.00000000 300.00000000 300.00000000 300.00000000 300.00000000 300.00000000 300.00000000 300.00000000 300.00000000 300.00000000 300.00000000 300.00000000 300.00000000 300.00000000 300.00000000 300.00000000 300.00000000 300.00000000 300.00000000 300.00000000 300.00000000 300.00000000 300.00000000 300.00000000 300.00000000 300.00000000 300.00000000 300.00000000 300.00000000 300.00000000 300.00000000 300.00000000 300.00000000 300.00000000 300.00000000 300.00000000 300.00000000 300.00000000 300.00000000 300.00000000 300.00000000 300.00000000 300.00000000 300.00000000 300.00000000 300.00000000 300.00000000 300.00000000 300.00000000 300.00000000 300.00000000 300.00000000 300.00000000 300.00000000 300.00000000 300.00000000 300.00000000 300.00000000 300.00000000 300.00000000 300.00000000 300.00000000 300.00000000 300.00000000 300.00000000 300.00000000 300.00000000 300.00000000 300.00000000 300.00000000 300.00000000 300.00000000 300.00000000 300.00000000 300.00000000 300.00000000 300.00000000 300.00000000 300.00000000 300.00000000 300.00000000 300.00000000 300.00000000 300.00000000 300.00000000 300.00000000 300.00000000 300.00000000 300.00000000 300.00000000 300.00000000 300.00000000 300.00000000 300.00000000 300.00000000 300.00000000 300.00000000 300.00000000 300.00000000 300.00000000 300.00000000 300.00000000 300.00000000 300.00000000 300.00000000 300.00000000 300.00000000 300.00000000 300.00000000 300.00000000 300.00000000 300.00000000 300.00000000 300.00000000 300.00000000 300.00000000 300.00000000 300.00000000 300.00000000 300.00000000 300.00000000 300.00000000 300.00000000 300.00000000 300.00000000 300.00000000 300.00000000 300.00000000 300.00000000 300.00000000 300.00000000 300.00000000 300.00000000 300.00000000 300.00000000 300.00000000 300.00000000 300.00000000 300.00000000 300.00000000 300.00000000 300.00000000 300.00000000 300.00000000 300.00000000 300.00000000 300.00000000 300.00000000 300.00000000 300.00000000 300.00000000 300.00000000 300.00000000 300.00000000 300.00000000 300.00000000 300.00000000 300.00000000 300.00000000 300.00000000 300.00000000 300.00000000 300.00000000 300.00000000 300.00000000 300.00000000 300.00000000 300.00000000 300.00000000 300.00000000 300.00000000 300.00000000 300.00000000 300.00000000 300.00000000 300.00000000 300.00000000 300.00000000 300.00000000 300.00000000 300.00000000 300.00000000 300.00000000 300.00000000 300.00000000 300.00000000 300.00000000 300.00000000 300.00000000 300.00000000 300.00000000 300.00000000 300.00000000 300.00000000 300.00000000 300.00000000 300.00000000 300.00000000 300.00000000 300.00000000 300.00000000 300.00000000 300.00000000 300.00000000 300.00000000 300.00000000 300.00000000 300.00000000 300.00000000 300.00000000 300.00000000 300.00000000 300.00000000 300.00000000 300.00000000 300.00000000 300.00000000 300.00000000 300.00000000 300.00000000 300.00000000 300.00000000 300.00000000 300.00000000 300.00000000 300.00000000 300.00000000 