# vtk DataFile Version 3.0
VTK - Matlab export
ASCII
DATASET STRUCTURED_POINTS
DIMENSIONS 40 40 1
SPACING 1 1 1
ORIGIN 0 0 0
POINT_DATA 1600
SCALARS Temperature float 1
LOOKUP_TABLE default
300.00000000 300.00000000 300.00000000 300.00000000 300.00000000 300.00000000 300.00000000 300.00000000 300.00000000 300.00000000 300.00000000 300.00000000 300.00000000 300.00000000 300.00000000 300.00000000 300.00000000 300.00000000 300.00000000 300.00000000 300.00000000 300.00000000 300.00000000 300.00000000 300.00000000 300.00000000 300.00000000 300.00000000 300.00000000 300.00000000 300.00000000 300.00000000 300.00000000 300.00000000 300.00000000 300.00000000 300.00000000 300.00000000 300.00000000 300.00000000 300.00000000 300.00000000 300.00000000 300.00000000 300.00000000 300.00000000 300.00000000 300.00000000 300.00000000 300.00000000 300.00000000 300.00000000 300.00000000 300.00000000 300.00000000 300.00000000 300.00000000 300.00000000 300.00000000 300.00000000 300.00000000 300.00000000 300.00000000 300.00000000 300.00000000 300.00000000 300.00000000 300.00000000 300.00000000 300.00000000 300.00000000 300.00000000 300.00000000 300.00000000 300.00000000 300.00000000 300.00000000 300.00000000 300.00000000 300.00000000 300.00000000 300.00000000 300.00000000 300.00000000 300.00000000 300.00000000 300.00000000 300.00000000 300.00000000 300.00000000 300.00000000 300.00000000 300.00000000 300.00000000 300.00000000 300.00000000 300.00000000 300.00000000 300.00000000 300.00000000 300.00000000 300.00000000 300.00000000 300.00000000 300.00000000 300.00000000 300.00000000 300.00000000 300.00000000 300.00000000 300.00000000 300.00000000 300.00000000 300.00000000 300.00000000 300.00000000 300.00000000 300.00000000 300.00000000 300.00000000 300.00000000 300.00000000 300.00000000 300.00000000 300.00000000 300.00000000 300.00000000 300.00000000 300.00000000 300.00000000 300.00000000 300.00000000 300.00000000 300.00000000 300.00000000 300.00000000 300.00000000 300.00000000 300.00000000 300.00000000 300.00000000 300.00000000 300.00000000 300.00000000 300.00000000 300.00000000 300.00000000 300.00000000 300.00000000 300.00000000 300.00000000 300.00000000 300.00000000 300.00000000 300.00000000 300.00000000 300.00000000 300.00000000 300.00000000 300.00000000 300.00000000 300.00000000 300.00000000 300.00000000 300.00000000 300.00000000 300.00000000 300.00000000 300.00000000 300.00000000 300.00000000 300.00000000 300.00000000 300.00000000 300.00000000 300.00000000 300.00000000 300.00000000 300.00000000 300.00000000 300.00000000 300.00000000 300.00000000 300.00000000 300.00000000 300.00000000 300.00000000 300.00000000 300.00000000 300.00000000 300.00000000 300.00000000 300.00000000 300.00000000 300.00000000 300.00000000 300.00000000 300.00000000 300.00000000 300.00000000 300.00000000 300.00000000 300.00000000 300.00000000 300.00000000 300.00000000 300.00000000 300.00000000 300.00000000 300.00000000 300.00000000 300.00000000 300.00000000 300.00000000 300.00000000 300.00000000 300.00000000 300.00000000 300.00000000 300.00000000 300.00000000 300.00000000 300.00000000 300.00000000 300.00000000 300.00000000 300.00000000 300.00000000 300.00000000 300.00000000 300.00000000 300.00000000 300.00000000 300.00000000 300.00000000 300.00000000 300.00000000 300.00000000 300.00000000 300.00000000 300.00000000 300.00000000 300.00000000 300.00000000 300.00000000 300.00000000 300.00000000 300.00000000 300.00000000 300.00000000 300.00000000 300.00000000 300.00000000 300.00000000 300.00000000 300.00000000 300.00000000 300.00000000 300.00000000 300.00000000 300.00000000 300.00000000 300.00000000 300.00000000 300.00000000 300.00000000 300.00000000 300.00000000 300.00000000 300.00000000 300.00000000 300.00000000 300.00000000 300.00000000 300.00000000 300.00000000 300.00000000 300.00000000 300.00000000 300.00000000 300.00000000 300.00000000 300.00000000 300.00000000 300.00000000 300.00000000 300.00000000 300.00000000 300.00000000 300.00000000 300.00000000 300.00000000 300.00000000 300.00000000 300.00000000 300.00000000 300.00000000 300.00000000 300.00000000 300.00000000 300.00000000 300.00000000 300.00000000 300.00000000 300.00000000 300.00000000 300.00000000 300.00000000 300.00000000 300.00000000 300.00000000 300.00000000 300.00000000 300.00000000 300.00000000 300.00000000 300.00000000 300.00000000 300.00000000 300.00000000 300.00000000 300.00000000 300.00000000 300.00000000 300.00000000 300.00000000 300.00000000 300.00000000 300.00000000 300.00000000 300.00000000 300.00000000 300.00000000 300.00000000 300.00000000 300.00000000 300.00000000 312.07440748 318.55816591 320.93298804 320.93298804 318.55816591 312.07440748 300.00000000 300.00000000 300.00000000 300.00000000 300.00000000 300.00000000 300.00000000 300.00000000 300.00000000 300.00000000 300.00000000 300.00000000 300.00000000 300.00000000 300.00000000 300.00000000 300.00000000 300.00000000 300.00000000 300.00000000 300.00000000 300.00000000 300.00000000 300.00000000 300.00000000 300.00000000 300.00000000 300.00000000 300.00000000 311.82884994 321.02956091 326.98066801 331.26542892 335.22904880 341.27218471 346.10308057 348.43726788 348.43726788 346.10308057 341.27218471 335.22904880 331.26542892 326.98066801 321.02956091 311.82884994 300.00000000 300.00000000 300.00000000 300.00000000 300.00000000 300.00000000 300.00000000 300.00000000 300.00000000 300.00000000 300.00000000 300.00000000 300.00000000 300.00000000 300.00000000 300.00000000 300.00000000 300.00000000 300.00000000 300.00000000 300.00000000 300.00000000 316.65200313 326.74517950 337.51889204 347.86357811 356.34161828 363.14615102 368.88043869 374.11951790 378.12182403 380.20088964 380.20088964 378.12182403 374.11951790 368.88043869 363.14615102 356.34161828 347.86357811 337.51889204 326.74517950 316.65200313 300.00000000 300.00000000 300.00000000 300.00000000 300.00000000 300.00000000 300.00000000 300.00000000 300.00000000 300.00000000 300.00000000 300.00000000 300.00000000 300.00000000 300.00000000 300.00000000 300.00000000 300.00000000 314.51605273 325.94818080 340.35580366 353.43221217 365.79435891 377.27955670 387.25603787 395.58845181 402.42355754 407.88730474 411.76235985 413.76175015 413.76175015 411.76235985 407.88730474 402.42355754 395.58845181 387.25603787 377.27955670 365.79435891 353.43221217 340.35580366 325.94818080 314.51605273 300.00000000 300.00000000 300.00000000 300.00000000 300.00000000 300.00000000 300.00000000 300.00000000 300.00000000 300.00000000 300.00000000 300.00000000 300.00000000 300.00000000 300.00000000 317.67368208 334.07792015 349.68338775 365.52499251 380.56917831 394.56524789 407.29132606 418.42303531 427.80024392 435.40801631 441.24995833 445.24275587 447.27103150 447.27103150 445.24275587 441.24995833 435.40801631 427.80024392 418.42303531 407.29132606 394.56524789 380.56917831 365.52499251 349.68338775 334.07792015 317.67368208 300.00000000 300.00000000 300.00000000 300.00000000 300.00000000 300.00000000 300.00000000 300.00000000 300.00000000 300.00000000 300.00000000 300.00000000 307.90579753 320.09731085 337.14933853 355.10465055 373.02608602 390.61210494 407.29197253 422.68990628 436.53271779 448.58820850 458.71936666 466.87674327 473.04338272 477.18890441 479.27379674 479.27379674 477.18890441 473.04338272 466.87674327 458.71936666 448.58820850 436.53271779 422.68990628 407.29197253 390.61210494 373.02608602 355.10465055 337.14933853 320.09731085 307.90579753 300.00000000 300.00000000 300.00000000 300.00000000 300.00000000 300.00000000 300.00000000 300.00000000 300.00000000 300.00000000 318.90086543 336.70008407 355.82232646 375.59791446 395.33903870 414.49611384 432.54682039 449.09039233 463.84083292 476.60200750 487.26565912 495.79393084 502.18527813 506.44497129 508.57479261 508.57479261 506.44497129 502.18527813 495.79393084 487.26565912 476.60200750 463.84083292 449.09039233 432.54682039 414.49611384 395.33903870 375.59791446 355.82232646 336.70008407 318.90086543 300.00000000 300.00000000 300.00000000 300.00000000 300.00000000 300.00000000 300.00000000 300.00000000 300.00000000 314.27865928 332.34203701 352.05731662 372.96770905 394.40003800 415.66492201 436.14365130 455.30643463 472.74689986 488.18461883 501.44952750 512.46387557 521.21710151 527.73540437 532.05520041 534.20678435 534.20678435 532.05520041 527.73540437 521.21710151 512.46387557 501.44952750 488.18461883 472.74689986 455.30643463 436.14365130 415.66492201 394.40003800 372.96770905 352.05731662 332.34203701 314.27865928 300.00000000 300.00000000 300.00000000 300.00000000 300.00000000 300.00000000 300.00000000 309.74697351 325.16983515 344.20691983 365.37943089 387.77491079 410.59456362 433.09848957 454.63211613 474.65495036 492.76231767 508.68698686 522.28393396 533.50589443 542.37316302 548.94184241 553.27620944 555.42887264 555.42887264 553.27620944 548.94184241 542.37316302 533.50589443 522.28393396 508.68698686 492.76231767 474.65495036 454.63211613 433.09848957 410.59456362 387.77491079 365.37943089 344.20691983 325.16983515 309.74697351 300.00000000 300.00000000 300.00000000 300.00000000 300.00000000 300.00000000 315.12620036 332.95619580 353.47068947 375.93414085 399.52398847 423.42516434 446.87196195 469.19079909 489.83525529 508.40585539 524.65028564 538.44647812 549.77445770 558.68258010 565.25350162 569.57464138 571.71600742 571.71600742 569.57464138 565.25350162 558.68258010 549.77445770 538.44647812 524.65028564 508.40585539 489.83525529 469.19079909 446.87196195 423.42516434 399.52398847 375.93414085 353.47068947 332.95619580 315.12620036 300.00000000 300.00000000 300.00000000 300.00000000 300.00000000 300.00000000 318.52263407 338.12858330 359.81616767 383.23386395 407.66514924 432.30887487 456.39071629 479.22836464 500.27345578 519.13218282 535.56471440 549.46670546 560.83877185 569.75033387 576.30368642 580.60287973 582.73006378 582.73006378 580.60287973 576.30368642 569.75033387 560.83877185 549.46670546 535.56471440 519.13218282 500.27345578 479.22836464 456.39071629 432.30887487 407.66514924 383.23386395 359.81616767 338.12858330 318.52263407 300.00000000 300.00000000 300.00000000 300.00000000 300.00000000 305.41016585 321.24962902 340.92906429 363.08035184 386.96990936 411.83004886 436.85067743 461.25168489 484.34688874 505.58756481 524.58345578 541.10177598 555.04783971 566.43333274 575.33893046 581.87733224 586.16128625 588.27920922 588.27920922 586.16128625 581.87733224 575.33893046 566.43333274 555.04783971 541.10177598 524.58345578 505.58756481 484.34688874 461.25168489 436.85067743 411.83004886 386.96990936 363.08035184 340.92906429 321.24962902 305.41016585 300.00000000 300.00000000 300.00000000 300.00000000 305.41016585 321.24962902 340.92906429 363.08035184 386.96990936 411.83004886 436.85067743 461.25168489 484.34688874 505.58756481 524.58345578 541.10177598 555.04783971 566.43333274 575.33893046 581.87733224 586.16128625 588.27920922 588.27920922 586.16128625 581.87733224 575.33893046 566.43333274 555.04783971 541.10177598 524.58345578 505.58756481 484.34688874 461.25168489 436.85067743 411.83004886 386.96990936 363.08035184 340.92906429 321.24962902 305.41016585 300.00000000 300.00000000 300.00000000 300.00000000 300.00000000 318.52263407 338.12858330 359.81616767 383.23386395 407.66514924 432.30887487 456.39071629 479.22836464 500.27345578 519.13218282 535.56471440 549.46670546 560.83877185 569.75033387 576.30368642 580.60287973 582.73006378 582.73006378 580.60287973 576.30368642 569.75033387 560.83877185 549.46670546 535.56471440 519.13218282 500.27345578 479.22836464 456.39071629 432.30887487 407.66514924 383.23386395 359.81616767 338.12858330 318.52263407 300.00000000 300.00000000 300.00000000 300.00000000 300.00000000 300.00000000 315.12620036 332.95619580 353.47068947 375.93414085 399.52398847 423.42516434 446.87196195 469.19079909 489.83525529 508.40585539 524.65028564 538.44647812 549.77445770 558.68258010 565.25350162 569.57464138 571.71600742 571.71600742 569.57464138 565.25350162 558.68258010 549.77445770 538.44647812 524.65028564 508.40585539 489.83525529 469.19079909 446.87196195 423.42516434 399.52398847 375.93414085 353.47068947 332.95619580 315.12620036 300.00000000 300.00000000 300.00000000 300.00000000 300.00000000 300.00000000 309.74697351 325.16983515 344.20691983 365.37943089 387.77491079 410.59456362 433.09848957 454.63211613 474.65495036 492.76231767 508.68698686 522.28393396 533.50589443 542.37316302 548.94184241 553.27620944 555.42887264 555.42887264 553.27620944 548.94184241 542.37316302 533.50589443 522.28393396 508.68698686 492.76231767 474.65495036 454.63211613 433.09848957 410.59456362 387.77491079 365.37943089 344.20691983 325.16983515 309.74697351 300.00000000 300.00000000 300.00000000 300.00000000 300.00000000 300.00000000 300.00000000 314.27865928 332.34203701 352.05731662 372.96770905 394.40003800 415.66492201 436.14365130 455.30643463 472.74689986 488.18461883 501.44952750 512.46387557 521.21710151 527.73540437 532.05520041 534.20678435 534.20678435 532.05520041 527.73540437 521.21710151 512.46387557 501.44952750 488.18461883 472.74689986 455.30643463 436.14365130 415.66492201 394.40003800 372.96770905 352.05731662 332.34203701 314.27865928 300.00000000 300.00000000 300.00000000 300.00000000 300.00000000 300.00000000 300.00000000 300.00000000 300.00000000 318.90086543 336.70008407 355.82232646 375.59791446 395.33903870 414.49611384 432.54682039 449.09039233 463.84083292 476.60200750 487.26565912 495.79393084 502.18527813 506.44497129 508.57479261 508.57479261 506.44497129 502.18527813 495.79393084 487.26565912 476.60200750 463.84083292 449.09039233 432.54682039 414.49611384 395.33903870 375.59791446 355.82232646 336.70008407 318.90086543 300.00000000 300.00000000 300.00000000 300.00000000 300.00000000 300.00000000 300.00000000 300.00000000 300.00000000 300.00000000 307.90579753 320.09731085 337.14933853 355.10465055 373.02608602 390.61210494 407.29197253 422.68990628 436.53271779 448.58820850 458.71936666 466.87674327 473.04338272 477.18890441 479.27379674 479.27379674 477.18890441 473.04338272 466.87674327 458.71936666 448.58820850 436.53271779 422.68990628 407.29197253 390.61210494 373.02608602 355.10465055 337.14933853 320.09731085 307.90579753 300.00000000 300.00000000 300.00000000 300.00000000 300.00000000 300.00000000 300.00000000 300.00000000 300.00000000 300.00000000 300.00000000 300.00000000 317.67368208 334.07792015 349.68338775 365.52499251 380.56917831 394.56524789 407.29132606 418.42303531 427.80024392 435.40801631 441.24995833 445.24275587 447.27103150 447.27103150 445.24275587 441.24995833 435.40801631 427.80024392 418.42303531 407.29132606 394.56524789 380.56917831 365.52499251 349.68338775 334.07792015 317.67368208 300.00000000 300.00000000 300.00000000 300.00000000 300.00000000 300.00000000 300.00000000 300.00000000 300.00000000 300.00000000 300.00000000 300.00000000 300.00000000 300.00000000 300.00000000 314.51605273 325.94818080 340.35580366 353.43221217 365.79435891 377.27955670 387.25603787 395.58845181 402.42355754 407.88730474 411.76235985 413.76175015 413.76175015 411.76235985 407.88730474 402.42355754 395.58845181 387.25603787 377.27955670 365.79435891 353.43221217 340.35580366 325.94818080 314.51605273 300.00000000 300.00000000 300.00000000 300.00000000 300.00000000 300.00000000 300.00000000 300.00000000 300.00000000 300.00000000 300.00000000 300.00000000 300.00000000 300.00000000 300.00000000 300.00000000 300.00000000 300.00000000 316.65200313 326.74517950 337.51889204 347.86357811 356.34161828 363.14615102 368.88043869 374.11951790 378.12182403 380.20088964 380.20088964 378.12182403 374.11951790 368.88043869 363.14615102 356.34161828 347.86357811 337.51889204 326.74517950 316.65200313 300.00000000 300.00000000 300.00000000 300.00000000 300.00000000 300.00000000 300.00000000 300.00000000 300.00000000 300.00000000 300.00000000 300.00000000 300.00000000 300.00000000 300.00000000 300.00000000 300.00000000 300.00000000 300.00000000 300.00000000 300.00000000 300.00000000 311.82884994 321.02956091 326.98066801 331.26542892 335.22904880 341.27218471 346.10308057 348.43726788 348.43726788 346.10308057 341.27218471 335.22904880 331.26542892 326.98066801 321.02956091 311.82884994 300.00000000 300.00000000 300.00000000 300.00000000 300.00000000 300.00000000 300.00000000 300.00000000 300.00000000 300.00000000 300.00000000 300.00000000 300.00000000 300.00000000 300.00000000 300.00000000 300.00000000 300.00000000 300.00000000 300.00000000 300.00000000 300.00000000 300.00000000 300.00000000 300.00000000 300.00000000 300.00000000 300.00000000 300.00000000 312.07440748 318.55816591 320.93298804 320.93298804 318.55816591 312.07440748 300.00000000 300.00000000 300.00000000 300.00000000 300.00000000 300.00000000 300.00000000 300.00000000 300.00000000 300.00000000 300.00000000 300.00000000 300.00000000 300.00000000 300.00000000 300.00000000 300.00000000 300.00000000 300.00000000 300.00000000 300.00000000 300.00000000 300.00000000 300.00000000 300.00000000 300.00000000 300.00000000 300.00000000 300.00000000 300.00000000 300.00000000 300.00000000 300.00000000 300.00000000 300.00000000 300.00000000 300.00000000 300.00000000 300.00000000 300.00000000 300.00000000 300.00000000 300.00000000 300.00000000 300.00000000 300.00000000 300.00000000 300.00000000 300.00000000 300.00000000 300.00000000 300.00000000 300.00000000 300.00000000 300.00000000 300.00000000 300.00000000 300.00000000 300.00000000 300.00000000 300.00000000 300.00000000 300.00000000 300.00000000 300.00000000 300.00000000 300.00000000 300.00000000 300.00000000 300.00000000 300.00000000 300.00000000 300.00000000 300.00000000 300.00000000 300.00000000 300.00000000 300.00000000 300.00000000 300.00000000 300.00000000 300.00000000 300.00000000 300.00000000 300.00000000 300.00000000 300.00000000 300.00000000 300.00000000 300.00000000 300.00000000 300.00000000 300.00000000 300.00000000 300.00000000 300.00000000 300.00000000 300.00000000 300.00000000 300.00000000 300.00000000 300.00000000 300.00000000 300.00000000 300.00000000 300.00000000 300.00000000 300.00000000 300.00000000 300.00000000 300.00000000 300.00000000 300.00000000 300.00000000 300.00000000 300.00000000 300.00000000 300.00000000 300.00000000 300.00000000 300.00000000 300.00000000 300.00000000 300.00000000 300.00000000 300.00000000 300.00000000 300.00000000 300.00000000 300.00000000 300.00000000 300.00000000 300.00000000 300.00000000 300.00000000 300.00000000 300.00000000 300.00000000 300.00000000 300.00000000 300.00000000 300.00000000 300.00000000 300.00000000 300.00000000 300.00000000 300.00000000 300.00000000 300.00000000 300.00000000 300.00000000 300.00000000 300.00000000 300.00000000 300.00000000 300.00000000 300.00000000 300.00000000 300.00000000 300.00000000 300.00000000 300.00000000 300.00000000 300.00000000 300.00000000 300.00000000 300.00000000 300.00000000 300.00000000 300.00000000 300.00000000 300.00000000 300.00000000 300.00000000 300.00000000 300.00000000 300.00000000 300.00000000 300.00000000 300.00000000 300.00000000 300.00000000 300.00000000 300.00000000 300.00000000 300.00000000 300.00000000 300.00000000 300.00000000 300.00000000 300.00000000 300.00000000 300.00000000 300.00000000 300.00000000 300.00000000 300.00000000 300.00000000 300.00000000 300.00000000 300.00000000 300.00000000 300.00000000 300.00000000 300.00000000 300.00000000 300.00000000 300.00000000 300.00000000 300.00000000 300.00000000 300.00000000 300.00000000 300.00000000 300.00000000 300.00000000 300.00000000 300.00000000 300.00000000 300.00000000 300.00000000 300.00000000 300.00000000 300.00000000 300.00000000 300.00000000 300.00000000 300.00000000 300.00000000 300.00000000 300.00000000 300.00000000 300.00000000 300.00000000 300.00000000 300.00000000 300.00000000 300.00000000 300.00000000 300.00000000 300.00000000 300.00000000 300.00000000 300.00000000 300.00000000 300.00000000 300.00000000 300.00000000 300.00000000 300.00000000 300.00000000 300.00000000 300.00000000 300.00000000 300.00000000 300.00000000 300.00000000 300.00000000 300.00000000 300.00000000 300.00000000 300.00000000 300.00000000 300.00000000 300.00000000 300.00000000 300.00000000 300.00000000 300.00000000 300.00000000 300.00000000 300.00000000 300.00000000 300.00000000 300.00000000 300.00000000 300.00000000 300.00000000 300.00000000 300.00000000 300.00000000 300.00000000 300.00000000 300.00000000 300.00000000 300.00000000 300.00000000 300.00000000 300.00000000 300.00000000 300.00000000 300.00000000 300.00000000 300.00000000 300.00000000 300.00000000 300.00000000 300.00000000 300.00000000 300.00000000 300.00000000 300.00000000 300.00000000 300.00000000 300.00000000 300.00000000 300.00000000 300.00000000 300.00000000 300.00000000 300.00000000 300.00000000 300.00000000 300.00000000 300.00000000 300.00000000 300.00000000 300.00000000 300.00000000 300.00000000 300.00000000 300.00000000 300.00000000 300.00000000 300.00000000 300.00000000 300.00000000 300.00000000 300.00000000 300.00000000 300.00000000 300.00000000 300.00000000 300.00000000 300.00000000 300.00000000 300.00000000 