# vtk DataFile Version 3.0
VTK - Matlab export
ASCII
DATASET STRUCTURED_POINTS
DIMENSIONS 40 40 1
SPACING 1 1 1
ORIGIN 0 0 0
POINT_DATA 1600
SCALARS Temperature float 1
LOOKUP_TABLE default
300.00000000 300.00000000 300.00000000 300.00000000 300.00000000 300.00000000 300.00000000 300.00000000 300.00000000 300.00000000 300.00000000 300.00000000 300.00000000 300.00000000 300.00000000 300.00000000 300.00000000 300.00000000 300.00000000 300.00000000 300.00000000 300.00000000 300.00000000 300.00000000 300.00000000 300.00000000 300.00000000 300.00000000 300.00000000 300.00000000 300.00000000 300.00000000 300.00000000 300.00000000 300.00000000 300.00000000 300.00000000 300.00000000 300.00000000 300.00000000 300.00000000 300.00000000 300.00000000 300.00000000 300.00000000 300.00000000 300.00000000 300.00000000 300.00000000 300.00000000 300.00000000 300.00000000 300.00000000 300.00000000 300.00000000 300.00000000 300.00000000 300.00000000 300.00000000 300.00000000 300.00000000 300.00000000 300.00000000 300.00000000 300.00000000 300.00000000 300.00000000 300.00000000 300.00000000 300.00000000 300.00000000 300.00000000 300.00000000 300.00000000 300.00000000 300.00000000 300.00000000 300.00000000 300.00000000 300.00000000 300.00000000 300.00000000 300.00000000 300.00000000 300.00000000 300.00000000 300.00000000 300.00000000 300.00000000 300.00000000 300.00000000 300.00000000 300.00000000 300.00000000 300.00000000 300.00000000 300.00000000 300.00000000 300.00000000 300.00000000 300.00000000 300.00000000 300.00000000 300.00000000 300.00000000 300.00000000 300.00000000 300.00000000 300.00000000 300.00000000 300.00000000 300.00000000 300.00000000 300.00000000 300.00000000 300.00000000 300.00000000 300.00000000 300.00000000 300.00000000 300.00000000 300.00000000 300.00000000 300.00000000 300.00000000 300.00000000 300.00000000 300.00000000 300.00000000 300.00000000 300.00000000 300.00000000 300.00000000 300.00000000 300.00000000 300.00000000 300.00000000 300.00000000 300.00000000 300.00000000 300.00000000 300.00000000 300.00000000 300.00000000 300.00000000 300.00000000 300.00000000 300.00000000 300.00000000 300.00000000 300.00000000 300.00000000 300.00000000 300.00000000 300.00000000 300.00000000 300.00000000 300.00000000 300.00000000 300.00000000 300.00000000 300.00000000 300.00000000 300.00000000 300.00000000 300.00000000 300.00000000 300.00000000 300.00000000 300.00000000 300.00000000 300.00000000 300.00000000 300.00000000 300.00000000 300.00000000 300.00000000 300.00000000 300.00000000 300.00000000 300.00000000 300.00000000 300.00000000 300.00000000 300.00000000 300.00000000 300.00000000 300.00000000 300.00000000 300.00000000 300.00000000 300.00000000 300.00000000 300.00000000 300.00000000 300.00000000 300.00000000 300.00000000 300.00000000 300.00000000 300.00000000 300.00000000 300.00000000 300.00000000 300.00000000 300.00000000 300.00000000 300.00000000 300.00000000 300.00000000 300.00000000 300.00000000 300.00000000 300.00000000 300.00000000 300.00000000 300.00000000 300.00000000 300.00000000 300.00000000 300.00000000 300.00000000 300.00000000 300.00000000 300.00000000 300.00000000 300.00000000 300.00000000 300.00000000 300.00000000 300.00000000 300.00000000 300.00000000 300.00000000 300.00000000 300.00000000 300.00000000 300.00000000 300.00000000 300.00000000 300.00000000 300.00000000 300.00000000 300.00000000 300.00000000 300.00000000 300.00000000 300.00000000 300.00000000 300.00000000 300.00000000 300.00000000 300.00000000 300.00000000 300.00000000 300.00000000 300.00000000 300.00000000 300.00000000 300.00000000 300.00000000 300.00000000 300.00000000 300.00000000 300.00000000 300.00000000 300.00000000 300.00000000 300.00000000 300.00000000 300.00000000 300.00000000 300.00000000 300.00000000 300.00000000 300.00000000 300.00000000 300.00000000 300.00000000 300.00000000 300.00000000 300.00000000 300.00000000 300.00000000 300.00000000 300.00000000 300.00000000 300.00000000 300.00000000 300.00000000 300.00000000 300.00000000 300.00000000 300.00000000 300.00000000 300.00000000 300.00000000 300.00000000 300.00000000 300.00000000 300.00000000 300.00000000 300.00000000 300.00000000 300.00000000 300.00000000 300.00000000 300.00000000 300.00000000 300.00000000 300.00000000 300.00000000 300.00000000 300.00000000 300.00000000 300.00000000 300.00000000 300.00000000 300.00000000 300.00000000 300.00000000 300.00000000 300.00000000 300.00000000 300.00000000 300.00000000 300.00000000 300.00000000 300.00000000 300.00000000 300.00000000 300.00000000 300.00000000 300.00000000 300.00000000 300.00000000 300.00000000 313.86282391 321.30433318 324.02803447 324.02803447 321.30433318 313.86282391 300.00000000 300.00000000 300.00000000 300.00000000 300.00000000 300.00000000 300.00000000 300.00000000 300.00000000 300.00000000 300.00000000 300.00000000 300.00000000 300.00000000 300.00000000 300.00000000 300.00000000 300.00000000 300.00000000 300.00000000 300.00000000 300.00000000 300.00000000 300.00000000 300.00000000 300.00000000 300.00000000 300.00000000 300.00000000 313.70993634 324.32065732 331.13109784 335.99271473 340.47713188 347.36251786 352.87162720 355.53141262 355.53141262 352.87162720 347.36251786 340.47713188 335.99271473 331.13109784 324.32065732 313.70993634 300.00000000 300.00000000 300.00000000 300.00000000 300.00000000 300.00000000 300.00000000 300.00000000 300.00000000 300.00000000 300.00000000 300.00000000 300.00000000 300.00000000 300.00000000 300.00000000 300.00000000 300.00000000 300.00000000 300.00000000 300.00000000 300.00000000 319.43349263 331.11965723 343.51230870 355.33883723 364.95322600 372.60641887 379.02554496 384.90039717 389.39514515 391.72968527 391.72968527 389.39514515 384.90039717 379.02554496 372.60641887 364.95322600 355.33883723 343.51230870 331.11965723 319.43349263 300.00000000 300.00000000 300.00000000 300.00000000 300.00000000 300.00000000 300.00000000 300.00000000 300.00000000 300.00000000 300.00000000 300.00000000 300.00000000 300.00000000 300.00000000 300.00000000 300.00000000 300.00000000 317.08080766 330.42779069 347.14136447 362.17300709 376.25578494 389.23007236 400.39880799 409.64615319 417.18384946 423.19453455 427.45529241 429.65274394 429.65274394 427.45529241 423.19453455 417.18384946 409.64615319 400.39880799 389.23007236 376.25578494 362.17300709 347.14136447 330.42779069 317.08080766 300.00000000 300.00000000 300.00000000 300.00000000 300.00000000 300.00000000 300.00000000 300.00000000 300.00000000 300.00000000 300.00000000 300.00000000 300.00000000 300.00000000 300.00000000 320.90041974 340.15722070 358.30123098 376.54038991 393.67142332 409.42904903 423.60028388 435.86311349 446.09023983 454.32078629 460.60774620 464.89213452 467.06513926 467.06513926 464.89213452 460.60774620 454.32078629 446.09023983 435.86311349 423.60028388 409.42904903 393.67142332 376.54038991 358.30123098 340.15722070 320.90041974 300.00000000 300.00000000 300.00000000 300.00000000 300.00000000 300.00000000 300.00000000 300.00000000 300.00000000 300.00000000 300.00000000 300.00000000 309.43467293 323.90717358 344.01466030 364.99499058 385.70086381 405.76858656 424.54823287 441.64555807 456.80721851 469.83905264 480.65991965 489.28501493 495.75600540 500.08430935 502.25493063 502.25493063 500.08430935 495.75600540 489.28501493 480.65991965 469.83905264 456.80721851 441.64555807 424.54823287 405.76858656 385.70086381 364.99499058 344.01466030 323.90717358 309.43467293 300.00000000 300.00000000 300.00000000 300.00000000 300.00000000 300.00000000 300.00000000 300.00000000 300.00000000 300.00000000 322.59678999 343.72717816 366.21273859 389.19975684 411.83926365 433.48239513 453.55000762 471.63828453 487.50107031 501.00851419 512.13305240 520.91972240 527.44030981 531.75603727 533.90503090 533.90503090 531.75603727 527.44030981 520.91972240 512.13305240 501.00851419 487.50107031 471.63828453 453.55000762 433.48239513 411.83926365 389.19975684 366.21273859 343.72717816 322.59678999 300.00000000 300.00000000 300.00000000 300.00000000 300.00000000 300.00000000 300.00000000 300.00000000 300.00000000 317.15928375 338.74425967 362.10547321 386.60704031 411.38094393 435.57711726 458.47394677 479.49947380 498.26441363 514.55230218 528.28621549 539.49373260 548.26705163 554.72120948 558.96077180 561.06112538 561.06112538 558.96077180 554.72120948 548.26705163 539.49373260 528.28621549 514.55230218 498.26441363 479.49947380 458.47394677 435.57711726 411.38094393 386.60704031 362.10547321 338.74425967 317.15928375 300.00000000 300.00000000 300.00000000 300.00000000 300.00000000 300.00000000 300.00000000 311.76292298 330.30196356 353.03264981 378.06839183 404.21588098 430.45050065 455.86377569 479.70131069 501.39489164 520.57798771 537.07180878 550.84963584 561.99225611 570.64115385 576.95522360 581.07693283 583.11053714 583.11053714 581.07693283 576.95522360 570.64115385 561.99225611 550.84963584 537.07180878 520.57798771 501.39489164 479.70131069 455.86377569 430.45050065 404.21588098 378.06839183 353.03264981 330.30196356 311.76292298 300.00000000 300.00000000 300.00000000 300.00000000 300.00000000 300.00000000 318.27428611 339.72126443 364.20466717 390.72101397 418.17763532 445.52726590 471.83355495 496.32891999 518.45299556 537.86363853 554.41867111 568.13581905 579.14212667 587.62227533 593.77283215 597.76698412 599.73103122 599.73103122 597.76698412 593.77283215 587.62227533 579.14212667 568.13581905 554.41867111 537.86363853 518.45299556 496.32891999 471.83355495 445.52726590 418.17763532 390.72101397 364.20466717 339.72126443 318.27428611 300.00000000 300.00000000 300.00000000 300.00000000 300.00000000 300.00000000 322.39430253 345.98795847 371.86331602 399.47192315 427.84365387 455.94638770 482.83632309 507.74296993 530.11499894 549.63059006 566.17625516 579.80314625 590.67250049 599.00071922 605.01163395 608.90006204 610.80737325 610.80737325 608.90006204 605.01163395 599.00071922 590.67250049 579.80314625 566.17625516 549.63059006 530.11499894 507.74296993 482.83632309 455.94638770 427.84365387 399.47192315 371.86331602 345.98795847 322.39430253 300.00000000 300.00000000 300.00000000 300.00000000 300.00000000 306.55265097 325.70539724 349.38448971 375.80494222 403.95039248 432.78542150 461.26618685 488.44358696 513.54663839 536.02972365 555.58250793 572.10721035 585.67293025 596.45906693 604.69875947 610.63009832 614.45906320 616.33469132 616.33469132 614.45906320 610.63009832 604.69875947 596.45906693 585.67293025 572.10721035 555.58250793 536.02972365 513.54663839 488.44358696 461.26618685 432.78542150 403.95039248 375.80494222 349.38448971 325.70539724 306.55265097 300.00000000 300.00000000 300.00000000 300.00000000 306.55265097 325.70539724 349.38448971 375.80494222 403.95039248 432.78542150 461.26618685 488.44358696 513.54663839 536.02972365 555.58250793 572.10721035 585.67293025 596.45906693 604.69875947 610.63009832 614.45906320 616.33469132 616.33469132 614.45906320 610.63009832 604.69875947 596.45906693 585.67293025 572.10721035 555.58250793 536.02972365 513.54663839 488.44358696 461.26618685 432.78542150 403.95039248 375.80494222 349.38448971 325.70539724 306.55265097 300.00000000 300.00000000 300.00000000 300.00000000 300.00000000 322.39430253 345.98795847 371.86331602 399.47192315 427.84365387 455.94638770 482.83632309 507.74296993 530.11499894 549.63059006 566.17625516 579.80314625 590.67250049 599.00071922 605.01163395 608.90006204 610.80737325 610.80737325 608.90006204 605.01163395 599.00071922 590.67250049 579.80314625 566.17625516 549.63059006 530.11499894 507.74296993 482.83632309 455.94638770 427.84365387 399.47192315 371.86331602 345.98795847 322.39430253 300.00000000 300.00000000 300.00000000 300.00000000 300.00000000 300.00000000 318.27428611 339.72126443 364.20466717 390.72101397 418.17763532 445.52726590 471.83355495 496.32891999 518.45299556 537.86363853 554.41867111 568.13581905 579.14212667 587.62227533 593.77283215 597.76698412 599.73103122 599.73103122 597.76698412 593.77283215 587.62227533 579.14212667 568.13581905 554.41867111 537.86363853 518.45299556 496.32891999 471.83355495 445.52726590 418.17763532 390.72101397 364.20466717 339.72126443 318.27428611 300.00000000 300.00000000 300.00000000 300.00000000 300.00000000 300.00000000 311.76292298 330.30196356 353.03264981 378.06839183 404.21588098 430.45050065 455.86377569 479.70131069 501.39489164 520.57798771 537.07180878 550.84963584 561.99225611 570.64115385 576.95522360 581.07693283 583.11053714 583.11053714 581.07693283 576.95522360 570.64115385 561.99225611 550.84963584 537.07180878 520.57798771 501.39489164 479.70131069 455.86377569 430.45050065 404.21588098 378.06839183 353.03264981 330.30196356 311.76292298 300.00000000 300.00000000 300.00000000 300.00000000 300.00000000 300.00000000 300.00000000 317.15928375 338.74425967 362.10547321 386.60704031 411.38094393 435.57711726 458.47394677 479.49947380 498.26441363 514.55230218 528.28621549 539.49373260 548.26705163 554.72120948 558.96077180 561.06112538 561.06112538 558.96077180 554.72120948 548.26705163 539.49373260 528.28621549 514.55230218 498.26441363 479.49947380 458.47394677 435.57711726 411.38094393 386.60704031 362.10547321 338.74425967 317.15928375 300.00000000 300.00000000 300.00000000 300.00000000 300.00000000 300.00000000 300.00000000 300.00000000 300.00000000 322.59678999 343.72717816 366.21273859 389.19975684 411.83926365 433.48239513 453.55000762 471.63828453 487.50107031 501.00851419 512.13305240 520.91972240 527.44030981 531.75603727 533.90503090 533.90503090 531.75603727 527.44030981 520.91972240 512.13305240 501.00851419 487.50107031 471.63828453 453.55000762 433.48239513 411.83926365 389.19975684 366.21273859 343.72717816 322.59678999 300.00000000 300.00000000 300.00000000 300.00000000 300.00000000 300.00000000 300.00000000 300.00000000 300.00000000 300.00000000 309.43467293 323.90717358 344.01466030 364.99499058 385.70086381 405.76858656 424.54823287 441.64555807 456.80721851 469.83905264 480.65991965 489.28501493 495.75600540 500.08430935 502.25493063 502.25493063 500.08430935 495.75600540 489.28501493 480.65991965 469.83905264 456.80721851 441.64555807 424.54823287 405.76858656 385.70086381 364.99499058 344.01466030 323.90717358 309.43467293 300.00000000 300.00000000 300.00000000 300.00000000 300.00000000 300.00000000 300.00000000 300.00000000 300.00000000 300.00000000 300.00000000 300.00000000 320.90041974 340.15722070 358.30123098 376.54038991 393.67142332 409.42904903 423.60028388 435.86311349 446.09023983 454.32078629 460.60774620 464.89213452 467.06513926 467.06513926 464.89213452 460.60774620 454.32078629 446.09023983 435.86311349 423.60028388 409.42904903 393.67142332 376.54038991 358.30123098 340.15722070 320.90041974 300.00000000 300.00000000 300.00000000 300.00000000 300.00000000 300.00000000 300.00000000 300.00000000 300.00000000 300.00000000 300.00000000 300.00000000 300.00000000 300.00000000 300.00000000 317.08080766 330.42779069 347.14136447 362.17300709 376.25578494 389.23007236 400.39880799 409.64615319 417.18384946 423.19453455 427.45529241 429.65274394 429.65274394 427.45529241 423.19453455 417.18384946 409.64615319 400.39880799 389.23007236 376.25578494 362.17300709 347.14136447 330.42779069 317.08080766 300.00000000 300.00000000 300.00000000 300.00000000 300.00000000 300.00000000 300.00000000 300.00000000 300.00000000 300.00000000 300.00000000 300.00000000 300.00000000 300.00000000 300.00000000 300.00000000 300.00000000 300.00000000 319.43349263 331.11965723 343.51230870 355.33883723 364.95322600 372.60641887 379.02554496 384.90039717 389.39514515 391.72968527 391.72968527 389.39514515 384.90039717 379.02554496 372.60641887 364.95322600 355.33883723 343.51230870 331.11965723 319.43349263 300.00000000 300.00000000 300.00000000 300.00000000 300.00000000 300.00000000 300.00000000 300.00000000 300.00000000 300.00000000 300.00000000 300.00000000 300.00000000 300.00000000 300.00000000 300.00000000 300.00000000 300.00000000 300.00000000 300.00000000 300.00000000 300.00000000 313.70993634 324.32065732 331.13109784 335.99271473 340.47713188 347.36251786 352.87162720 355.53141262 355.53141262 352.87162720 347.36251786 340.47713188 335.99271473 331.13109784 324.32065732 313.70993634 300.00000000 300.00000000 300.00000000 300.00000000 300.00000000 300.00000000 300.00000000 300.00000000 300.00000000 300.00000000 300.00000000 300.00000000 300.00000000 300.00000000 300.00000000 300.00000000 300.00000000 300.00000000 300.00000000 300.00000000 300.00000000 300.00000000 300.00000000 300.00000000 300.00000000 300.00000000 300.00000000 300.00000000 300.00000000 313.86282391 321.30433318 324.02803447 324.02803447 321.30433318 313.86282391 300.00000000 300.00000000 300.00000000 300.00000000 300.00000000 300.00000000 300.00000000 300.00000000 300.00000000 300.00000000 300.00000000 300.00000000 300.00000000 300.00000000 300.00000000 300.00000000 300.00000000 300.00000000 300.00000000 300.00000000 300.00000000 300.00000000 300.00000000 300.00000000 300.00000000 300.00000000 300.00000000 300.00000000 300.00000000 300.00000000 300.00000000 300.00000000 300.00000000 300.00000000 300.00000000 300.00000000 300.00000000 300.00000000 300.00000000 300.00000000 300.00000000 300.00000000 300.00000000 300.00000000 300.00000000 300.00000000 300.00000000 300.00000000 300.00000000 300.00000000 300.00000000 300.00000000 300.00000000 300.00000000 300.00000000 300.00000000 300.00000000 300.00000000 300.00000000 300.00000000 300.00000000 300.00000000 300.00000000 300.00000000 300.00000000 300.00000000 300.00000000 300.00000000 300.00000000 300.00000000 300.00000000 300.00000000 300.00000000 300.00000000 300.00000000 300.00000000 300.00000000 300.00000000 300.00000000 300.00000000 300.00000000 300.00000000 300.00000000 300.00000000 300.00000000 300.00000000 300.00000000 300.00000000 300.00000000 300.00000000 300.00000000 300.00000000 300.00000000 300.00000000 300.00000000 300.00000000 300.00000000 300.00000000 300.00000000 300.00000000 300.00000000 300.00000000 300.00000000 300.00000000 300.00000000 300.00000000 300.00000000 300.00000000 300.00000000 300.00000000 300.00000000 300.00000000 300.00000000 300.00000000 300.00000000 300.00000000 300.00000000 300.00000000 300.00000000 300.00000000 300.00000000 300.00000000 300.00000000 300.00000000 300.00000000 300.00000000 300.00000000 300.00000000 300.00000000 300.00000000 300.00000000 300.00000000 300.00000000 300.00000000 300.00000000 300.00000000 300.00000000 300.00000000 300.00000000 300.00000000 300.00000000 300.00000000 300.00000000 300.00000000 300.00000000 300.00000000 300.00000000 300.00000000 300.00000000 300.00000000 300.00000000 300.00000000 300.00000000 300.00000000 300.00000000 300.00000000 300.00000000 300.00000000 300.00000000 300.00000000 300.00000000 300.00000000 300.00000000 300.00000000 300.00000000 300.00000000 300.00000000 300.00000000 300.00000000 300.00000000 300.00000000 300.00000000 300.00000000 300.00000000 300.00000000 300.00000000 300.00000000 300.00000000 300.00000000 300.00000000 300.00000000 300.00000000 300.00000000 300.00000000 300.00000000 300.00000000 300.00000000 300.00000000 300.00000000 300.00000000 300.00000000 300.00000000 300.00000000 300.00000000 300.00000000 300.00000000 300.00000000 300.00000000 300.00000000 300.00000000 300.00000000 300.00000000 300.00000000 300.00000000 300.00000000 300.00000000 300.00000000 300.00000000 300.00000000 300.00000000 300.00000000 300.00000000 300.00000000 300.00000000 300.00000000 300.00000000 300.00000000 300.00000000 300.00000000 300.00000000 300.00000000 300.00000000 300.00000000 300.00000000 300.00000000 300.00000000 300.00000000 300.00000000 300.00000000 300.00000000 300.00000000 300.00000000 300.00000000 300.00000000 300.00000000 300.00000000 300.00000000 300.00000000 300.00000000 300.00000000 300.00000000 300.00000000 300.00000000 300.00000000 300.00000000 300.00000000 300.00000000 300.00000000 300.00000000 300.00000000 300.00000000 300.00000000 300.00000000 300.00000000 300.00000000 300.00000000 300.00000000 300.00000000 300.00000000 300.00000000 300.00000000 300.00000000 300.00000000 300.00000000 300.00000000 300.00000000 300.00000000 300.00000000 300.00000000 300.00000000 300.00000000 300.00000000 300.00000000 300.00000000 300.00000000 300.00000000 300.00000000 300.00000000 300.00000000 300.00000000 300.00000000 300.00000000 300.00000000 300.00000000 300.00000000 300.00000000 300.00000000 300.00000000 300.00000000 300.00000000 300.00000000 300.00000000 300.00000000 300.00000000 300.00000000 300.00000000 300.00000000 300.00000000 300.00000000 300.00000000 300.00000000 300.00000000 300.00000000 300.00000000 300.00000000 300.00000000 300.00000000 300.00000000 300.00000000 300.00000000 300.00000000 300.00000000 300.00000000 300.00000000 300.00000000 300.00000000 300.00000000 300.00000000 300.00000000 300.00000000 300.00000000 300.00000000 300.00000000 300.00000000 300.00000000 300.00000000 300.00000000 300.00000000 300.00000000 300.00000000 300.00000000 300.00000000 300.00000000 300.00000000 300.00000000 300.00000000 300.00000000 