# vtk DataFile Version 3.0
VTK - Matlab export
ASCII
DATASET STRUCTURED_POINTS
DIMENSIONS 40 40 1
SPACING 1 1 1
ORIGIN 0 0 0
POINT_DATA 1600
SCALARS Proofstrength float 1
LOOKUP_TABLE default
142.25514280 142.25514280 142.25514280 142.25514280 142.25514280 142.25514280 142.25514280 142.25514280 142.25514280 142.25514280 142.25514280 142.25514280 142.25514280 142.25514280 142.25514280 142.25514280 142.25514280 142.25514280 142.25514280 142.25514280 142.25514280 142.25514280 142.25514280 142.25514280 142.25514280 142.25514280 142.25514280 142.25514280 142.25514280 142.25514280 142.25514280 142.25514280 142.25514280 142.25514280 142.25514280 142.25514280 142.25514280 142.25514280 142.25514280 142.25514280 142.25514280 142.25514280 142.25514280 142.25514280 142.25514280 142.25514280 142.25514280 142.25514280 142.25514280 142.25514280 142.25514280 142.25514280 142.25514280 142.25514280 142.25514280 142.25514280 142.25514280 142.25514280 142.25514280 142.25514280 142.25514280 142.25514280 142.25514280 142.25514280 142.25514280 142.25514280 142.25514280 142.25514280 142.25514280 142.25514280 142.25514280 142.25514280 142.25514280 142.25514280 142.25514280 142.25514280 142.25514280 142.25514280 142.25514280 142.25514280 142.25514280 142.25514280 142.25514280 142.25514280 142.25514280 142.25514280 142.25514280 142.25514280 142.25514280 142.25514280 142.25514280 142.25514280 142.25514280 142.25514280 142.25514280 142.25514280 142.25514280 142.25514280 142.25514280 142.25514280 142.25514280 142.25514280 142.25514280 142.25514280 142.25514280 142.25514280 142.25514280 142.25514280 142.25514280 142.25514280 142.25514280 142.25514280 142.25514280 142.25514280 142.25514280 142.25514280 142.25514280 142.25514280 142.25514280 142.25514280 142.25514280 142.25514280 142.25514280 142.25514280 142.25514280 142.25514280 142.25514280 142.25514280 142.25514280 142.25514280 142.25514280 142.25514280 142.25514280 142.25514280 142.25514280 142.25514280 142.25514280 142.25514280 142.25514280 142.25514280 142.25514280 142.25514280 142.25514280 142.25514280 142.25514280 142.25514280 142.25514280 142.25514280 142.25514280 142.25514280 142.25514280 142.25514280 142.25514280 142.25514280 142.25514280 142.25514280 142.25514280 142.25514280 142.25514280 142.25514280 142.25514280 142.25514280 142.25514280 142.25514280 142.25514280 142.25514280 142.25514280 142.25514280 142.25514280 142.25514280 142.25514280 142.25514280 142.25514280 142.25514280 142.25514280 142.25514280 142.25514280 142.25514280 142.25514280 142.25514280 142.25514280 142.25514280 142.25514280 142.25514280 142.25514280 142.25514280 142.25514280 142.25514280 142.25514280 142.25514280 142.25514280 142.25514280 142.25514280 142.25514280 142.25514280 142.25514280 142.25514280 142.25514280 142.25514280 142.25514280 142.25514280 142.25514280 142.25514280 142.25514280 142.25514280 142.25514280 142.25514280 142.25514280 142.25514280 142.25514280 142.25514280 142.25514280 142.25514280 142.25514280 142.25514280 142.25514280 142.25514280 142.25514280 142.25514280 142.25514280 142.25514280 142.25514280 142.25514280 142.25514280 142.25514280 142.25514280 142.25514280 142.25514280 142.25514280 142.25514280 142.25514280 142.25514280 142.25514280 142.25514280 142.25514280 142.25514280 142.25514280 142.25514280 142.25514280 142.25514280 142.25514280 142.25514280 142.25514280 142.25514280 142.25514280 142.25514280 142.25514280 142.25514280 142.25514280 142.25514280 142.25514280 142.25514280 142.25514280 142.25514280 142.25514280 142.25514280 142.25514280 142.25514280 142.25514280 142.25514280 142.25514280 142.25514280 142.25514280 142.25514280 142.25514280 142.25514280 142.25514280 142.25514280 142.25514280 142.25514280 142.25514280 142.25514280 142.25514280 142.25514280 142.25514280 142.25514280 142.25514280 142.25514280 142.25514280 142.25514280 142.25514280 142.25514280 142.25514280 142.25514280 142.25514280 142.25514280 142.25514280 142.25514280 142.25514280 142.25514280 142.25514280 142.25514280 142.25514280 142.25514280 142.25514280 142.25514280 142.25514280 142.25514280 142.25514280 142.25514280 142.25514280 142.25514280 142.25514280 142.25514280 142.25514280 142.25514280 142.25514280 142.25514280 142.25514280 142.25514280 142.25514280 142.25514280 142.25514280 142.25514280 142.25514280 142.25514280 142.25514280 142.25514280 142.25514280 142.25514280 142.25514280 142.25514280 142.25514280 142.25514280 142.25514280 142.25514280 142.25514280 142.25514280 142.25514280 142.25514280 142.25514280 142.25514280 142.25514280 142.25514280 142.25514280 142.25514280 142.25514280 142.26132799 142.26491364 142.26630479 142.26630479 142.26491364 142.26132799 142.25514280 142.25514280 142.25514280 142.25514280 142.25514280 142.25514280 142.25514280 142.25514280 142.25514280 142.25514280 142.25514280 142.25514280 142.25514280 142.25514280 142.25514280 142.25514280 142.25514280 142.25514280 142.25514280 142.25514280 142.25514280 142.25514280 142.25514280 142.25514280 142.25514280 142.25514280 142.25514280 142.25514280 142.25514280 142.26165618 142.26647617 142.26911978 142.27060322 142.27194603 142.27470293 142.27714814 142.27838397 142.27838397 142.27714814 142.27470293 142.27194603 142.27060322 142.26911978 142.26647617 142.26165618 142.25514280 142.25514280 142.25514280 142.25514280 142.25514280 142.25514280 142.25514280 142.25514280 142.25514280 142.25514280 142.25514280 142.25514280 142.25514280 142.25514280 142.25514280 142.25514280 142.25514280 142.25514280 142.25514280 142.25514280 142.25514280 142.25514280 142.26473553 142.26984076 142.27469559 142.27877643 142.28133799 142.28276177 142.28378649 142.28506831 142.28629312 142.28698903 142.28698903 142.28629312 142.28506831 142.28378649 142.28276177 142.28133799 142.27877643 142.27469559 142.26984076 142.26473553 142.25514280 142.25514280 142.25514280 142.25514280 142.25514280 142.25514280 142.25514280 142.25514280 142.25514280 142.25514280 142.25514280 142.25514280 142.25514280 142.25514280 142.25514280 142.25514280 142.25514280 142.25514280 142.26405607 142.27013280 142.27696898 142.28177578 142.28514790 142.28737693 142.28845862 142.28872886 142.28870437 142.28878875 142.28899746 142.28915643 142.28915643 142.28899746 142.28878875 142.28870437 142.28872886 142.28845862 142.28737693 142.28514790 142.28177578 142.27696898 142.27013280 142.26405607 142.25514280 142.25514280 142.25514280 142.25514280 142.25514280 142.25514280 142.25514280 142.25514280 142.25514280 142.25514280 142.25514280 142.25514280 142.25514280 142.25514280 142.25514280 142.26627104 142.27514667 142.28156178 142.28625348 142.28889508 142.28991580 142.28983896 142.28903720 142.28788673 142.28675735 142.28590567 142.28539481 142.28516713 142.28516713 142.28539481 142.28590567 142.28675735 142.28788673 142.28903720 142.28983896 142.28991580 142.28889508 142.28625348 142.28156178 142.27514667 142.26627104 142.25514280 142.25514280 142.25514280 142.25514280 142.25514280 142.25514280 142.25514280 142.25514280 142.25514280 142.25514280 142.25514280 142.25514280 142.26091416 142.26867991 142.27774164 142.28468319 142.28881626 142.29050810 142.29024696 142.28872626 142.28659066 142.28429187 142.28213714 142.28033547 142.27899960 142.27814602 142.27773660 142.27773660 142.27814602 142.27899960 142.28033547 142.28213714 142.28429187 142.28659066 142.28872626 142.29024696 142.29050810 142.28881626 142.28468319 142.27774164 142.26867991 142.26091416 142.25514280 142.25514280 142.25514280 142.25514280 142.25514280 142.25514280 142.25514280 142.25514280 142.25514280 142.25514280 142.26889835 142.27912479 142.28652985 142.29050881 142.29129498 142.28974454 142.28682180 142.28337166 142.27998588 142.27698819 142.27451628 142.27260648 142.27124155 142.27037557 142.26995825 142.26995825 142.27037557 142.27124155 142.27260648 142.27451628 142.27698819 142.27998588 142.28337166 142.28682180 142.28974454 142.29129498 142.29050881 142.28652985 142.27912479 142.26889835 142.25514280 142.25514280 142.25514280 142.25514280 142.25514280 142.25514280 142.25514280 142.25514280 142.25514280 142.26665257 142.27855361 142.28731949 142.29186045 142.29230812 142.28972575 142.28549763 142.28080316 142.27641167 142.27269681 142.26975180 142.26752237 142.26590408 142.26479224 142.26410098 142.26377052 142.26377052 142.26410098 142.26479224 142.26590408 142.26752237 142.26975180 142.27269681 142.27641167 142.28080316 142.28549763 142.28972575 142.29230812 142.29186045 142.28731949 142.27855361 142.26665257 142.25514280 142.25514280 142.25514280 142.25514280 142.25514280 142.25514280 142.25514280 142.26388371 142.27572918 142.28633146 142.29267174 142.29393130 142.29104074 142.28577774 142.27985047 142.27439530 142.26992962 142.26653623 142.26407772 142.26235116 142.26116976 142.26039135 142.25991967 142.25969709 142.25969709 142.25991967 142.26039135 142.26116976 142.26235116 142.26407772 142.26653623 142.26992962 142.27439530 142.27985047 142.28577774 142.29104074 142.29393130 142.29267174 142.28633146 142.27572918 142.26388371 142.25514280 142.25514280 142.25514280 142.25514280 142.25514280 142.25514280 142.26878148 142.28187623 142.29145443 142.29540180 142.29374763 142.28826662 142.28126795 142.27455849 142.26906887 142.26500866 142.26219518 142.26032093 142.25909859 142.25831187 142.25781674 142.25752565 142.25739052 142.25739052 142.25752565 142.25781674 142.25831187 142.25909859 142.26032093 142.26219518 142.26500866 142.26906887 142.27455849 142.28126795 142.28826662 142.29374763 142.29540180 142.29145443 142.28187623 142.26878148 142.25514280 142.25514280 142.25514280 142.25514280 142.25514280 142.25514280 142.27179887 142.28562013 142.29430400 142.29638419 142.29264377 142.28550664 142.27759610 142.27068167 142.26546238 142.26189276 142.25960525 142.25819425 142.25733833 142.25682120 142.25651158 142.25633567 142.25625557 142.25625557 142.25633567 142.25651158 142.25682120 142.25733833 142.25819425 142.25960525 142.26189276 142.26546238 142.27068167 142.27759610 142.28550664 142.29264377 142.29638419 142.29430400 142.28562013 142.27179887 142.25514280 142.25514280 142.25514280 142.25514280 142.25514280 142.26030175 142.27432645 142.28758671 142.29555656 142.29658683 142.29177249 142.28385459 142.27558587 142.26867841 142.26368608 142.26042394 142.25843351 142.25726786 142.25659684 142.25621074 142.25598877 142.25586629 142.25581145 142.25581145 142.25586629 142.25598877 142.25621074 142.25659684 142.25726786 142.25843351 142.26042394 142.26368608 142.26867841 142.27558587 142.28385459 142.29177249 142.29658683 142.29555656 142.28758671 142.27432645 142.26030175 142.25514280 142.25514280 142.25514280 142.25514280 142.26030175 142.27432645 142.28758671 142.29555656 142.29658683 142.29177249 142.28385459 142.27558587 142.26867841 142.26368608 142.26042394 142.25843351 142.25726786 142.25659684 142.25621074 142.25598877 142.25586629 142.25581145 142.25581145 142.25586629 142.25598877 142.25621074 142.25659684 142.25726786 142.25843351 142.26042394 142.26368608 142.26867841 142.27558587 142.28385459 142.29177249 142.29658683 142.29555656 142.28758671 142.27432645 142.26030175 142.25514280 142.25514280 142.25514280 142.25514280 142.25514280 142.27179887 142.28562013 142.29430400 142.29638419 142.29264377 142.28550664 142.27759610 142.27068167 142.26546238 142.26189276 142.25960525 142.25819425 142.25733833 142.25682120 142.25651158 142.25633567 142.25625557 142.25625557 142.25633567 142.25651158 142.25682120 142.25733833 142.25819425 142.25960525 142.26189276 142.26546238 142.27068167 142.27759610 142.28550664 142.29264377 142.29638419 142.29430400 142.28562013 142.27179887 142.25514280 142.25514280 142.25514280 142.25514280 142.25514280 142.25514280 142.26878148 142.28187623 142.29145443 142.29540180 142.29374763 142.28826662 142.28126795 142.27455849 142.26906887 142.26500866 142.26219518 142.26032093 142.25909859 142.25831187 142.25781674 142.25752565 142.25739052 142.25739052 142.25752565 142.25781674 142.25831187 142.25909859 142.26032093 142.26219518 142.26500866 142.26906887 142.27455849 142.28126795 142.28826662 142.29374763 142.29540180 142.29145443 142.28187623 142.26878148 142.25514280 142.25514280 142.25514280 142.25514280 142.25514280 142.25514280 142.26388371 142.27572918 142.28633146 142.29267174 142.29393130 142.29104074 142.28577774 142.27985047 142.27439530 142.26992962 142.26653623 142.26407772 142.26235116 142.26116976 142.26039135 142.25991967 142.25969709 142.25969709 142.25991967 142.26039135 142.26116976 142.26235116 142.26407772 142.26653623 142.26992962 142.27439530 142.27985047 142.28577774 142.29104074 142.29393130 142.29267174 142.28633146 142.27572918 142.26388371 142.25514280 142.25514280 142.25514280 142.25514280 142.25514280 142.25514280 142.25514280 142.26665257 142.27855361 142.28731949 142.29186045 142.29230812 142.28972575 142.28549763 142.28080316 142.27641167 142.27269681 142.26975180 142.26752237 142.26590408 142.26479224 142.26410098 142.26377052 142.26377052 142.26410098 142.26479224 142.26590408 142.26752237 142.26975180 142.27269681 142.27641167 142.28080316 142.28549763 142.28972575 142.29230812 142.29186045 142.28731949 142.27855361 142.26665257 142.25514280 142.25514280 142.25514280 142.25514280 142.25514280 142.25514280 142.25514280 142.25514280 142.25514280 142.26889835 142.27912479 142.28652985 142.29050881 142.29129498 142.28974454 142.28682180 142.28337166 142.27998588 142.27698819 142.27451628 142.27260648 142.27124155 142.27037557 142.26995825 142.26995825 142.27037557 142.27124155 142.27260648 142.27451628 142.27698819 142.27998588 142.28337166 142.28682180 142.28974454 142.29129498 142.29050881 142.28652985 142.27912479 142.26889835 142.25514280 142.25514280 142.25514280 142.25514280 142.25514280 142.25514280 142.25514280 142.25514280 142.25514280 142.25514280 142.26091416 142.26867991 142.27774164 142.28468319 142.28881626 142.29050810 142.29024696 142.28872626 142.28659066 142.28429187 142.28213714 142.28033547 142.27899960 142.27814602 142.27773660 142.27773660 142.27814602 142.27899960 142.28033547 142.28213714 142.28429187 142.28659066 142.28872626 142.29024696 142.29050810 142.28881626 142.28468319 142.27774164 142.26867991 142.26091416 142.25514280 142.25514280 142.25514280 142.25514280 142.25514280 142.25514280 142.25514280 142.25514280 142.25514280 142.25514280 142.25514280 142.25514280 142.26627104 142.27514667 142.28156178 142.28625348 142.28889508 142.28991580 142.28983896 142.28903720 142.28788673 142.28675735 142.28590567 142.28539481 142.28516713 142.28516713 142.28539481 142.28590567 142.28675735 142.28788673 142.28903720 142.28983896 142.28991580 142.28889508 142.28625348 142.28156178 142.27514667 142.26627104 142.25514280 142.25514280 142.25514280 142.25514280 142.25514280 142.25514280 142.25514280 142.25514280 142.25514280 142.25514280 142.25514280 142.25514280 142.25514280 142.25514280 142.25514280 142.26405607 142.27013280 142.27696898 142.28177578 142.28514790 142.28737693 142.28845862 142.28872886 142.28870437 142.28878875 142.28899746 142.28915643 142.28915643 142.28899746 142.28878875 142.28870437 142.28872886 142.28845862 142.28737693 142.28514790 142.28177578 142.27696898 142.27013280 142.26405607 142.25514280 142.25514280 142.25514280 142.25514280 142.25514280 142.25514280 142.25514280 142.25514280 142.25514280 142.25514280 142.25514280 142.25514280 142.25514280 142.25514280 142.25514280 142.25514280 142.25514280 142.25514280 142.26473553 142.26984076 142.27469559 142.27877643 142.28133799 142.28276177 142.28378649 142.28506831 142.28629312 142.28698903 142.28698903 142.28629312 142.28506831 142.28378649 142.28276177 142.28133799 142.27877643 142.27469559 142.26984076 142.26473553 142.25514280 142.25514280 142.25514280 142.25514280 142.25514280 142.25514280 142.25514280 142.25514280 142.25514280 142.25514280 142.25514280 142.25514280 142.25514280 142.25514280 142.25514280 142.25514280 142.25514280 142.25514280 142.25514280 142.25514280 142.25514280 142.25514280 142.26165618 142.26647617 142.26911978 142.27060322 142.27194603 142.27470293 142.27714814 142.27838397 142.27838397 142.27714814 142.27470293 142.27194603 142.27060322 142.26911978 142.26647617 142.26165618 142.25514280 142.25514280 142.25514280 142.25514280 142.25514280 142.25514280 142.25514280 142.25514280 142.25514280 142.25514280 142.25514280 142.25514280 142.25514280 142.25514280 142.25514280 142.25514280 142.25514280 142.25514280 142.25514280 142.25514280 142.25514280 142.25514280 142.25514280 142.25514280 142.25514280 142.25514280 142.25514280 142.25514280 142.25514280 142.26132799 142.26491364 142.26630479 142.26630479 142.26491364 142.26132799 142.25514280 142.25514280 142.25514280 142.25514280 142.25514280 142.25514280 142.25514280 142.25514280 142.25514280 142.25514280 142.25514280 142.25514280 142.25514280 142.25514280 142.25514280 142.25514280 142.25514280 142.25514280 142.25514280 142.25514280 142.25514280 142.25514280 142.25514280 142.25514280 142.25514280 142.25514280 142.25514280 142.25514280 142.25514280 142.25514280 142.25514280 142.25514280 142.25514280 142.25514280 142.25514280 142.25514280 142.25514280 142.25514280 142.25514280 142.25514280 142.25514280 142.25514280 142.25514280 142.25514280 142.25514280 142.25514280 142.25514280 142.25514280 142.25514280 142.25514280 142.25514280 142.25514280 142.25514280 142.25514280 142.25514280 142.25514280 142.25514280 142.25514280 142.25514280 142.25514280 142.25514280 142.25514280 142.25514280 142.25514280 142.25514280 142.25514280 142.25514280 142.25514280 142.25514280 142.25514280 142.25514280 142.25514280 142.25514280 142.25514280 142.25514280 142.25514280 142.25514280 142.25514280 142.25514280 142.25514280 142.25514280 142.25514280 142.25514280 142.25514280 142.25514280 142.25514280 142.25514280 142.25514280 142.25514280 142.25514280 142.25514280 142.25514280 142.25514280 142.25514280 142.25514280 142.25514280 142.25514280 142.25514280 142.25514280 142.25514280 142.25514280 142.25514280 142.25514280 142.25514280 142.25514280 142.25514280 142.25514280 142.25514280 142.25514280 142.25514280 142.25514280 142.25514280 142.25514280 142.25514280 142.25514280 142.25514280 142.25514280 142.25514280 142.25514280 142.25514280 142.25514280 142.25514280 142.25514280 142.25514280 142.25514280 142.25514280 142.25514280 142.25514280 142.25514280 142.25514280 142.25514280 142.25514280 142.25514280 142.25514280 142.25514280 142.25514280 142.25514280 142.25514280 142.25514280 142.25514280 142.25514280 142.25514280 142.25514280 142.25514280 142.25514280 142.25514280 142.25514280 142.25514280 142.25514280 142.25514280 142.25514280 142.25514280 142.25514280 142.25514280 142.25514280 142.25514280 142.25514280 142.25514280 142.25514280 142.25514280 142.25514280 142.25514280 142.25514280 142.25514280 142.25514280 142.25514280 142.25514280 142.25514280 142.25514280 142.25514280 142.25514280 142.25514280 142.25514280 142.25514280 142.25514280 142.25514280 142.25514280 142.25514280 142.25514280 142.25514280 142.25514280 142.25514280 142.25514280 142.25514280 142.25514280 142.25514280 142.25514280 142.25514280 142.25514280 142.25514280 142.25514280 142.25514280 142.25514280 142.25514280 142.25514280 142.25514280 142.25514280 142.25514280 142.25514280 142.25514280 142.25514280 142.25514280 142.25514280 142.25514280 142.25514280 142.25514280 142.25514280 142.25514280 142.25514280 142.25514280 142.25514280 142.25514280 142.25514280 142.25514280 142.25514280 142.25514280 142.25514280 142.25514280 142.25514280 142.25514280 142.25514280 142.25514280 142.25514280 142.25514280 142.25514280 142.25514280 142.25514280 142.25514280 142.25514280 142.25514280 142.25514280 142.25514280 142.25514280 142.25514280 142.25514280 142.25514280 142.25514280 142.25514280 142.25514280 142.25514280 142.25514280 142.25514280 142.25514280 142.25514280 142.25514280 142.25514280 142.25514280 142.25514280 142.25514280 142.25514280 142.25514280 142.25514280 142.25514280 142.25514280 142.25514280 142.25514280 142.25514280 142.25514280 142.25514280 142.25514280 142.25514280 142.25514280 142.25514280 142.25514280 142.25514280 142.25514280 142.25514280 142.25514280 142.25514280 142.25514280 142.25514280 142.25514280 142.25514280 142.25514280 142.25514280 142.25514280 142.25514280 142.25514280 142.25514280 142.25514280 142.25514280 142.25514280 142.25514280 142.25514280 142.25514280 142.25514280 142.25514280 142.25514280 142.25514280 142.25514280 142.25514280 142.25514280 142.25514280 142.25514280 142.25514280 142.25514280 142.25514280 142.25514280 142.25514280 142.25514280 142.25514280 142.25514280 142.25514280 142.25514280 142.25514280 142.25514280 142.25514280 142.25514280 142.25514280 142.25514280 142.25514280 142.25514280 142.25514280 142.25514280 142.25514280 142.25514280 142.25514280 142.25514280 142.25514280 142.25514280 142.25514280 142.25514280 142.25514280 142.25514280 142.25514280 142.25514280 142.25514280 142.25514280 142.25514280 142.25514280 142.25514280 142.25514280 142.25514280 142.25514280 142.25514280 142.25514280 142.25514280 