# vtk DataFile Version 3.0
VTK - Matlab export
ASCII
DATASET STRUCTURED_POINTS
DIMENSIONS 40 40 1
SPACING 1 1 1
ORIGIN 0 0 0
POINT_DATA 1600
SCALARS Proofstrength float 1
LOOKUP_TABLE default
142.25514280 142.25514280 142.25514280 142.25514280 142.25514280 142.25514280 142.25514280 142.25514280 142.25514280 142.25514280 142.25514280 142.25514280 142.25514280 142.25514280 142.25514280 142.25514280 142.25514280 142.25514280 142.25514280 142.25514280 142.25514280 142.25514280 142.25514280 142.25514280 142.25514280 142.25514280 142.25514280 142.25514280 142.25514280 142.25514280 142.25514280 142.25514280 142.25514280 142.25514280 142.25514280 142.25514280 142.25514280 142.25514280 142.25514280 142.25514280 142.25514280 142.25514280 142.25514280 142.25514280 142.25514280 142.25514280 142.25514280 142.25514280 142.25514280 142.25514280 142.25514280 142.25514280 142.25514280 142.25514280 142.25514280 142.25514280 142.25514280 142.25514280 142.25514280 142.25514280 142.25514280 142.25514280 142.25514280 142.25514280 142.25514280 142.25514280 142.25514280 142.25514280 142.25514280 142.25514280 142.25514280 142.25514280 142.25514280 142.25514280 142.25514280 142.25514280 142.25514280 142.25514280 142.25514280 142.25514280 142.25514280 142.25514280 142.25514280 142.25514280 142.25514280 142.25514280 142.25514280 142.25514280 142.25514280 142.25514280 142.25514280 142.25514280 142.25514280 142.25514280 142.25514280 142.25514280 142.25514280 142.25514280 142.25514280 142.25514280 142.25514280 142.25514280 142.25514280 142.25514280 142.25514280 142.25514280 142.25514280 142.25514280 142.25514280 142.25514280 142.25514280 142.25514280 142.25514280 142.25514280 142.25514280 142.25514280 142.25514280 142.25514280 142.25514280 142.25514280 142.25514280 142.25514280 142.25514280 142.25514280 142.25514280 142.25514280 142.25514280 142.25514280 142.25514280 142.25514280 142.25514280 142.25514280 142.25514280 142.25514280 142.25514280 142.25514280 142.25514280 142.25514280 142.25514280 142.25514280 142.25514280 142.25514280 142.25514280 142.25514280 142.25514280 142.25514280 142.25514280 142.25514280 142.25514280 142.25514280 142.25514280 142.25514280 142.25514280 142.25514280 142.25514280 142.25514280 142.25514280 142.25514280 142.25514280 142.25514280 142.25514280 142.25514280 142.25514280 142.25514280 142.25514280 142.25514280 142.25514280 142.25514280 142.25514280 142.25514280 142.25514280 142.25514280 142.25514280 142.25514280 142.25514280 142.25514280 142.25514280 142.25514280 142.25514280 142.25514280 142.25514280 142.25514280 142.25514280 142.25514280 142.25514280 142.25514280 142.25514280 142.25514280 142.25514280 142.25514280 142.25514280 142.25514280 142.25514280 142.25514280 142.25514280 142.25514280 142.25514280 142.25514280 142.25514280 142.25514280 142.25514280 142.25514280 142.25514280 142.25514280 142.25514280 142.25514280 142.25514280 142.25514280 142.25514280 142.25514280 142.25514280 142.25514280 142.25514280 142.25514280 142.25514280 142.25514280 142.25514280 142.25514280 142.25514280 142.25514280 142.25514280 142.25514280 142.25514280 142.25514280 142.25514280 142.25514280 142.25514280 142.25514280 142.25514280 142.25514280 142.25514280 142.25514280 142.25514280 142.25514280 142.25514280 142.25514280 142.25514280 142.25514280 142.25514280 142.25514280 142.25514280 142.25514280 142.25514280 142.25514280 142.25514280 142.25514280 142.25514280 142.25514280 142.25514280 142.25514280 142.25514280 142.25514280 142.25514280 142.25514280 142.25514280 142.25514280 142.25514280 142.25514280 142.25514280 142.25514280 142.25514280 142.25514280 142.25514280 142.25514280 142.25514280 142.25514280 142.25514280 142.25514280 142.25514280 142.25514280 142.25514280 142.25514280 142.25514280 142.25514280 142.25514280 142.25514280 142.25514280 142.25514280 142.25514280 142.25514280 142.25514280 142.25514280 142.25514280 142.25514280 142.25514280 142.25514280 142.25514280 142.25514280 142.25514280 142.25514280 142.25514280 142.25514280 142.25514280 142.25514280 142.25514280 142.25514280 142.25514280 142.25514280 142.25514280 142.25514280 142.25514280 142.25514280 142.25514280 142.25514280 142.25514280 142.25514280 142.25514280 142.25514280 142.25514280 142.25514280 142.25514280 142.25514280 142.25514280 142.25514280 142.25514280 142.25514280 142.25514280 142.25514280 142.25514280 142.25514280 142.25514280 142.25514280 142.25514280 142.25514280 142.25514280 142.25514280 142.25514280 142.25514280 142.25514280 142.25514280 142.25514280 142.25514280 142.25514280 142.25514280 142.25514280 142.25514280 142.25514280 142.25875189 142.26076669 142.26152357 142.26152357 142.26076669 142.25875189 142.25514280 142.25514280 142.25514280 142.25514280 142.25514280 142.25514280 142.25514280 142.25514280 142.25514280 142.25514280 142.25514280 142.25514280 142.25514280 142.25514280 142.25514280 142.25514280 142.25514280 142.25514280 142.25514280 142.25514280 142.25514280 142.25514280 142.25514280 142.25514280 142.25514280 142.25514280 142.25514280 142.25514280 142.25514280 142.25895275 142.26178383 142.26341152 142.26440870 142.26530691 142.26694718 142.26833247 142.26901236 142.26901236 142.26833247 142.26694718 142.26530691 142.26440870 142.26341152 142.26178383 142.25895275 142.25514280 142.25514280 142.25514280 142.25514280 142.25514280 142.25514280 142.25514280 142.25514280 142.25514280 142.25514280 142.25514280 142.25514280 142.25514280 142.25514280 142.25514280 142.25514280 142.25514280 142.25514280 142.25514280 142.25514280 142.25514280 142.25514280 142.26078574 142.26387284 142.26688922 142.26952061 142.27134212 142.27253351 142.27344578 142.27439508 142.27519924 142.27563209 142.27563209 142.27519924 142.27439508 142.27344578 142.27253351 142.27134212 142.26952061 142.26688922 142.26387284 142.26078574 142.25514280 142.25514280 142.25514280 142.25514280 142.25514280 142.25514280 142.25514280 142.25514280 142.25514280 142.25514280 142.25514280 142.25514280 142.25514280 142.25514280 142.25514280 142.25514280 142.25514280 142.25514280 142.26041999 142.26413016 142.26840708 142.27167045 142.27422144 142.27616248 142.27744480 142.27820970 142.27869606 142.27909651 142.27942192 142.27960332 142.27960332 142.27942192 142.27909651 142.27869606 142.27820970 142.27744480 142.27616248 142.27422144 142.27167045 142.26840708 142.26413016 142.26041999 142.25514280 142.25514280 142.25514280 142.25514280 142.25514280 142.25514280 142.25514280 142.25514280 142.25514280 142.25514280 142.25514280 142.25514280 142.25514280 142.25514280 142.25514280 142.26182069 142.26732867 142.27165829 142.27520826 142.27771996 142.27933002 142.28023882 142.28060341 142.28061318 142.28046919 142.28032256 142.28023102 142.28019111 142.28019111 142.28023102 142.28032256 142.28046919 142.28061318 142.28060341 142.28023882 142.27933002 142.27771996 142.27520826 142.27165829 142.26732867 142.26182069 142.25514280 142.25514280 142.25514280 142.25514280 142.25514280 142.25514280 142.25514280 142.25514280 142.25514280 142.25514280 142.25514280 142.25514280 142.25853453 142.26326848 142.26907909 142.27403243 142.27766967 142.28003952 142.28124787 142.28155283 142.28125062 142.28059593 142.27980283 142.27904229 142.27842831 142.27801305 142.27780679 142.27780679 142.27801305 142.27842831 142.27904229 142.27980283 142.28059593 142.28125062 142.28155283 142.28124787 142.28003952 142.27766967 142.27403243 142.26907909 142.26326848 142.25853453 142.25514280 142.25514280 142.25514280 142.25514280 142.25514280 142.25514280 142.25514280 142.25514280 142.25514280 142.25514280 142.26333226 142.26990484 142.27540871 142.27937434 142.28165921 142.28245702 142.28211525 142.28103951 142.27959791 142.27806935 142.27664450 142.27544275 142.27452729 142.27391973 142.27361886 142.27361886 142.27391973 142.27452729 142.27544275 142.27664450 142.27806935 142.27959791 142.28103951 142.28211525 142.28245702 142.28165921 142.27937434 142.27540871 142.26990484 142.26333226 142.25514280 142.25514280 142.25514280 142.25514280 142.25514280 142.25514280 142.25514280 142.25514280 142.25514280 142.26186475 142.26930641 142.27570098 142.28034413 142.28291661 142.28354158 142.28266097 142.28083159 142.27856939 142.27626312 142.27415641 142.27237545 142.27096878 142.26994045 142.26927349 142.26894677 142.26894677 142.26927349 142.26994045 142.27096878 142.27237545 142.27415641 142.27626312 142.27856939 142.28083159 142.28266097 142.28354158 142.28291661 142.28034413 142.27570098 142.26930641 142.26186475 142.25514280 142.25514280 142.25514280 142.25514280 142.25514280 142.25514280 142.25514280 142.26010674 142.26721994 142.27445817 142.28023473 142.28371469 142.28474429 142.28371920 142.28133145 142.27830037 142.27519486 142.27237212 142.27000123 142.26812371 142.26671348 142.26571933 142.26508964 142.26478520 142.26478520 142.26508964 142.26571933 142.26671348 142.26812371 142.27000123 142.27237212 142.27519486 142.27830037 142.28133145 142.28371920 142.28474429 142.28371469 142.28023473 142.27445817 142.26721994 142.26010674 142.25514280 142.25514280 142.25514280 142.25514280 142.25514280 142.25514280 142.26292538 142.27102651 142.27825608 142.28336205 142.28568480 142.28530949 142.28289735 142.27934944 142.27549008 142.27189136 142.26884795 142.26644232 142.26463425 142.26333420 142.26244849 142.26190083 142.26163975 142.26163975 142.26190083 142.26244849 142.26333420 142.26463425 142.26644232 142.26884795 142.27189136 142.27549008 142.27934944 142.28289735 142.28530949 142.28568480 142.28336205 142.27825608 142.27102651 142.26292538 142.25514280 142.25514280 142.25514280 142.25514280 142.25514280 142.25514280 142.26471509 142.27349662 142.28068775 142.28522950 142.28664068 142.28521965 142.28183539 142.27753321 142.27319192 142.26936189 142.26627413 142.26393841 142.26225274 142.26108372 142.26031077 142.25984332 142.25962347 142.25962347 142.25984332 142.26031077 142.26108372 142.26225274 142.26393841 142.26627413 142.26936189 142.27319192 142.27753321 142.28183539 142.28521965 142.28664068 142.28522950 142.28068775 142.27349662 142.26471509 142.25514280 142.25514280 142.25514280 142.25514280 142.25514280 142.25805251 142.26618994 142.27483008 142.28188301 142.28608330 142.28699225 142.28501808 142.28113987 142.27647441 142.27192120 142.26801124 142.26493657 142.26266626 142.26106570 142.25997963 142.25927493 142.25885488 142.25865910 142.25865910 142.25885488 142.25927493 142.25997963 142.26106570 142.26266626 142.26493657 142.26801124 142.27192120 142.27647441 142.28113987 142.28501808 142.28699225 142.28608330 142.28188301 142.27483008 142.26618994 142.25805251 142.25514280 142.25514280 142.25514280 142.25514280 142.25805251 142.26618994 142.27483008 142.28188301 142.28608330 142.28699225 142.28501808 142.28113987 142.27647441 142.27192120 142.26801124 142.26493657 142.26266626 142.26106570 142.25997963 142.25927493 142.25885488 142.25865910 142.25865910 142.25885488 142.25927493 142.25997963 142.26106570 142.26266626 142.26493657 142.26801124 142.27192120 142.27647441 142.28113987 142.28501808 142.28699225 142.28608330 142.28188301 142.27483008 142.26618994 142.25805251 142.25514280 142.25514280 142.25514280 142.25514280 142.25514280 142.26471509 142.27349662 142.28068775 142.28522950 142.28664068 142.28521965 142.28183539 142.27753321 142.27319192 142.26936189 142.26627413 142.26393841 142.26225274 142.26108372 142.26031077 142.25984332 142.25962347 142.25962347 142.25984332 142.26031077 142.26108372 142.26225274 142.26393841 142.26627413 142.26936189 142.27319192 142.27753321 142.28183539 142.28521965 142.28664068 142.28522950 142.28068775 142.27349662 142.26471509 142.25514280 142.25514280 142.25514280 142.25514280 142.25514280 142.25514280 142.26292538 142.27102651 142.27825608 142.28336205 142.28568480 142.28530949 142.28289735 142.27934944 142.27549008 142.27189136 142.26884795 142.26644232 142.26463425 142.26333420 142.26244849 142.26190083 142.26163975 142.26163975 142.26190083 142.26244849 142.26333420 142.26463425 142.26644232 142.26884795 142.27189136 142.27549008 142.27934944 142.28289735 142.28530949 142.28568480 142.28336205 142.27825608 142.27102651 142.26292538 142.25514280 142.25514280 142.25514280 142.25514280 142.25514280 142.25514280 142.26010674 142.26721994 142.27445817 142.28023473 142.28371469 142.28474429 142.28371920 142.28133145 142.27830037 142.27519486 142.27237212 142.27000123 142.26812371 142.26671348 142.26571933 142.26508964 142.26478520 142.26478520 142.26508964 142.26571933 142.26671348 142.26812371 142.27000123 142.27237212 142.27519486 142.27830037 142.28133145 142.28371920 142.28474429 142.28371469 142.28023473 142.27445817 142.26721994 142.26010674 142.25514280 142.25514280 142.25514280 142.25514280 142.25514280 142.25514280 142.25514280 142.26186475 142.26930641 142.27570098 142.28034413 142.28291661 142.28354158 142.28266097 142.28083159 142.27856939 142.27626312 142.27415641 142.27237545 142.27096878 142.26994045 142.26927349 142.26894677 142.26894677 142.26927349 142.26994045 142.27096878 142.27237545 142.27415641 142.27626312 142.27856939 142.28083159 142.28266097 142.28354158 142.28291661 142.28034413 142.27570098 142.26930641 142.26186475 142.25514280 142.25514280 142.25514280 142.25514280 142.25514280 142.25514280 142.25514280 142.25514280 142.25514280 142.26333226 142.26990484 142.27540871 142.27937434 142.28165921 142.28245702 142.28211525 142.28103951 142.27959791 142.27806935 142.27664450 142.27544275 142.27452729 142.27391973 142.27361886 142.27361886 142.27391973 142.27452729 142.27544275 142.27664450 142.27806935 142.27959791 142.28103951 142.28211525 142.28245702 142.28165921 142.27937434 142.27540871 142.26990484 142.26333226 142.25514280 142.25514280 142.25514280 142.25514280 142.25514280 142.25514280 142.25514280 142.25514280 142.25514280 142.25514280 142.25853453 142.26326848 142.26907909 142.27403243 142.27766967 142.28003952 142.28124787 142.28155283 142.28125062 142.28059593 142.27980283 142.27904229 142.27842831 142.27801305 142.27780679 142.27780679 142.27801305 142.27842831 142.27904229 142.27980283 142.28059593 142.28125062 142.28155283 142.28124787 142.28003952 142.27766967 142.27403243 142.26907909 142.26326848 142.25853453 142.25514280 142.25514280 142.25514280 142.25514280 142.25514280 142.25514280 142.25514280 142.25514280 142.25514280 142.25514280 142.25514280 142.25514280 142.26182069 142.26732867 142.27165829 142.27520826 142.27771996 142.27933002 142.28023882 142.28060341 142.28061318 142.28046919 142.28032256 142.28023102 142.28019111 142.28019111 142.28023102 142.28032256 142.28046919 142.28061318 142.28060341 142.28023882 142.27933002 142.27771996 142.27520826 142.27165829 142.26732867 142.26182069 142.25514280 142.25514280 142.25514280 142.25514280 142.25514280 142.25514280 142.25514280 142.25514280 142.25514280 142.25514280 142.25514280 142.25514280 142.25514280 142.25514280 142.25514280 142.26041999 142.26413016 142.26840708 142.27167045 142.27422144 142.27616248 142.27744480 142.27820970 142.27869606 142.27909651 142.27942192 142.27960332 142.27960332 142.27942192 142.27909651 142.27869606 142.27820970 142.27744480 142.27616248 142.27422144 142.27167045 142.26840708 142.26413016 142.26041999 142.25514280 142.25514280 142.25514280 142.25514280 142.25514280 142.25514280 142.25514280 142.25514280 142.25514280 142.25514280 142.25514280 142.25514280 142.25514280 142.25514280 142.25514280 142.25514280 142.25514280 142.25514280 142.26078574 142.26387284 142.26688922 142.26952061 142.27134212 142.27253351 142.27344578 142.27439508 142.27519924 142.27563209 142.27563209 142.27519924 142.27439508 142.27344578 142.27253351 142.27134212 142.26952061 142.26688922 142.26387284 142.26078574 142.25514280 142.25514280 142.25514280 142.25514280 142.25514280 142.25514280 142.25514280 142.25514280 142.25514280 142.25514280 142.25514280 142.25514280 142.25514280 142.25514280 142.25514280 142.25514280 142.25514280 142.25514280 142.25514280 142.25514280 142.25514280 142.25514280 142.25895275 142.26178383 142.26341152 142.26440870 142.26530691 142.26694718 142.26833247 142.26901236 142.26901236 142.26833247 142.26694718 142.26530691 142.26440870 142.26341152 142.26178383 142.25895275 142.25514280 142.25514280 142.25514280 142.25514280 142.25514280 142.25514280 142.25514280 142.25514280 142.25514280 142.25514280 142.25514280 142.25514280 142.25514280 142.25514280 142.25514280 142.25514280 142.25514280 142.25514280 142.25514280 142.25514280 142.25514280 142.25514280 142.25514280 142.25514280 142.25514280 142.25514280 142.25514280 142.25514280 142.25514280 142.25875189 142.26076669 142.26152357 142.26152357 142.26076669 142.25875189 142.25514280 142.25514280 142.25514280 142.25514280 142.25514280 142.25514280 142.25514280 142.25514280 142.25514280 142.25514280 142.25514280 142.25514280 142.25514280 142.25514280 142.25514280 142.25514280 142.25514280 142.25514280 142.25514280 142.25514280 142.25514280 142.25514280 142.25514280 142.25514280 142.25514280 142.25514280 142.25514280 142.25514280 142.25514280 142.25514280 142.25514280 142.25514280 142.25514280 142.25514280 142.25514280 142.25514280 142.25514280 142.25514280 142.25514280 142.25514280 142.25514280 142.25514280 142.25514280 142.25514280 142.25514280 142.25514280 142.25514280 142.25514280 142.25514280 142.25514280 142.25514280 142.25514280 142.25514280 142.25514280 142.25514280 142.25514280 142.25514280 142.25514280 142.25514280 142.25514280 142.25514280 142.25514280 142.25514280 142.25514280 142.25514280 142.25514280 142.25514280 142.25514280 142.25514280 142.25514280 142.25514280 142.25514280 142.25514280 142.25514280 142.25514280 142.25514280 142.25514280 142.25514280 142.25514280 142.25514280 142.25514280 142.25514280 142.25514280 142.25514280 142.25514280 142.25514280 142.25514280 142.25514280 142.25514280 142.25514280 142.25514280 142.25514280 142.25514280 142.25514280 142.25514280 142.25514280 142.25514280 142.25514280 142.25514280 142.25514280 142.25514280 142.25514280 142.25514280 142.25514280 142.25514280 142.25514280 142.25514280 142.25514280 142.25514280 142.25514280 142.25514280 142.25514280 142.25514280 142.25514280 142.25514280 142.25514280 142.25514280 142.25514280 142.25514280 142.25514280 142.25514280 142.25514280 142.25514280 142.25514280 142.25514280 142.25514280 142.25514280 142.25514280 142.25514280 142.25514280 142.25514280 142.25514280 142.25514280 142.25514280 142.25514280 142.25514280 142.25514280 142.25514280 142.25514280 142.25514280 142.25514280 142.25514280 142.25514280 142.25514280 142.25514280 142.25514280 142.25514280 142.25514280 142.25514280 142.25514280 142.25514280 142.25514280 142.25514280 142.25514280 142.25514280 142.25514280 142.25514280 142.25514280 142.25514280 142.25514280 142.25514280 142.25514280 142.25514280 142.25514280 142.25514280 142.25514280 142.25514280 142.25514280 142.25514280 142.25514280 142.25514280 142.25514280 142.25514280 142.25514280 142.25514280 142.25514280 142.25514280 142.25514280 142.25514280 142.25514280 142.25514280 142.25514280 142.25514280 142.25514280 142.25514280 142.25514280 142.25514280 142.25514280 142.25514280 142.25514280 142.25514280 142.25514280 142.25514280 142.25514280 142.25514280 142.25514280 142.25514280 142.25514280 142.25514280 142.25514280 142.25514280 142.25514280 142.25514280 142.25514280 142.25514280 142.25514280 142.25514280 142.25514280 142.25514280 142.25514280 142.25514280 142.25514280 142.25514280 142.25514280 142.25514280 142.25514280 142.25514280 142.25514280 142.25514280 142.25514280 142.25514280 142.25514280 142.25514280 142.25514280 142.25514280 142.25514280 142.25514280 142.25514280 142.25514280 142.25514280 142.25514280 142.25514280 142.25514280 142.25514280 142.25514280 142.25514280 142.25514280 142.25514280 142.25514280 142.25514280 142.25514280 142.25514280 142.25514280 142.25514280 142.25514280 142.25514280 142.25514280 142.25514280 142.25514280 142.25514280 142.25514280 142.25514280 142.25514280 142.25514280 142.25514280 142.25514280 142.25514280 142.25514280 142.25514280 142.25514280 142.25514280 142.25514280 142.25514280 142.25514280 142.25514280 142.25514280 142.25514280 142.25514280 142.25514280 142.25514280 142.25514280 142.25514280 142.25514280 142.25514280 142.25514280 142.25514280 142.25514280 142.25514280 142.25514280 142.25514280 142.25514280 142.25514280 142.25514280 142.25514280 142.25514280 142.25514280 142.25514280 142.25514280 142.25514280 142.25514280 142.25514280 142.25514280 142.25514280 142.25514280 142.25514280 142.25514280 142.25514280 142.25514280 142.25514280 142.25514280 142.25514280 142.25514280 142.25514280 142.25514280 142.25514280 142.25514280 142.25514280 142.25514280 142.25514280 142.25514280 142.25514280 142.25514280 142.25514280 142.25514280 142.25514280 142.25514280 142.25514280 142.25514280 142.25514280 142.25514280 142.25514280 142.25514280 142.25514280 142.25514280 142.25514280 142.25514280 142.25514280 142.25514280 142.25514280 142.25514280 142.25514280 142.25514280 142.25514280 142.25514280 142.25514280 142.25514280 142.25514280 