# vtk DataFile Version 3.0
VTK - Matlab export
ASCII
DATASET STRUCTURED_POINTS
DIMENSIONS 40 40 1
SPACING 1 1 1
ORIGIN 0 0 0
POINT_DATA 1600
SCALARS lambda-2 float 1
LOOKUP_TABLE default
7.22156776 7.22156776 7.22156776 7.22156776 7.22156776 7.22156776 7.22156776 7.22156776 7.22156776 7.22156776 7.22156776 7.22156776 7.22156776 7.22156776 7.22156776 7.22156776 7.22156776 7.22156776 7.22156776 7.22156776 7.22156776 7.22156776 7.22156776 7.22156776 7.22156776 7.22156776 7.22156776 7.22156776 7.22156776 7.22156776 7.22156776 7.22156776 7.22156776 7.22156776 7.22156776 7.22156776 7.22156776 7.22156776 7.22156776 7.22156776 7.22156776 7.22156776 7.22156776 7.22156776 7.22156776 7.22156776 7.22156776 7.22156776 7.22156776 7.22156776 7.22156776 7.22156776 7.22156776 7.22156776 7.22156776 7.22156776 7.22156776 7.22156776 7.22156776 7.22156776 7.22156776 7.22156776 7.22156776 7.22156776 7.22156776 7.22156776 7.22156776 7.22156776 7.22156776 7.22156776 7.22156776 7.22156776 7.22156776 7.22156776 7.22156776 7.22156776 7.22156776 7.22156776 7.22156776 7.22156776 7.22156776 7.22156776 7.22156776 7.22156776 7.22156776 7.22156776 7.22156776 7.22156776 7.22156776 7.22156776 7.22156776 7.22156776 7.22156776 7.22156776 7.22156776 7.22156776 7.22156776 7.22156776 7.22156776 7.22156776 7.22156776 7.22156776 7.22156776 7.22156776 7.22156776 7.22156776 7.22156776 7.22156776 7.22156776 7.22156776 7.22156776 7.22156776 7.22156776 7.22156776 7.22156776 7.22156776 7.22156776 7.22156776 7.22156776 7.22156776 7.22156776 7.22156776 7.22156776 7.22156776 7.22156776 7.22156776 7.22156776 7.22156776 7.22156776 7.22156776 7.22156776 7.22156776 7.22156776 7.22156776 7.22156776 7.22156776 7.22156776 7.22156776 7.22156776 7.22156776 7.22156776 7.22156776 7.22156776 7.22156776 7.22156776 7.22156776 7.22156776 7.22156776 7.22156776 7.22156776 7.22156776 7.22156776 7.22156776 7.22156776 7.22156776 7.22156776 7.22156776 7.22156776 7.22156776 7.22156776 7.22156776 7.22156776 7.22156776 7.22156776 7.22156776 7.22156776 7.22156776 7.22156776 7.22156776 7.22156776 7.22156776 7.22156776 7.22156776 7.22156776 7.22156776 7.22156776 7.22156776 7.22156776 7.22156776 7.22156776 7.22156776 7.22156776 7.22156776 7.22156776 7.22156776 7.22156776 7.22156776 7.22156776 7.22156776 7.22156776 7.22156776 7.22156776 7.22156776 7.22156776 7.22156776 7.22156776 7.22156776 7.22156776 7.22156776 7.22156776 7.22156776 7.22156776 7.22156776 7.22156776 7.22156776 7.22156776 7.22156776 7.22156776 7.22156776 7.22156776 7.22156776 7.22156776 7.22156776 7.22156776 7.22156776 7.22156776 7.22156776 7.22156776 7.22156776 7.22156776 7.22156776 7.22156776 7.22156776 7.22156776 7.22156776 7.22156776 7.22156776 7.22156776 7.22156776 7.22156776 7.22156776 7.22156776 7.22156776 7.22156776 7.22156776 7.22156776 7.22156776 7.22156776 7.22156776 7.22156776 7.22156776 7.22156776 7.22156776 7.22156776 7.22156776 7.22156776 7.22156776 7.22156776 7.22156776 7.22156776 7.22156776 7.22156776 7.22156776 7.22156776 7.22156776 7.22156776 7.22156776 7.22156776 7.22156776 7.22156776 7.22156776 7.22156776 7.22156776 7.22156776 7.22156776 7.22156776 7.22156776 7.22156776 7.22156776 7.22156776 7.22156776 7.22156776 7.22156776 7.22156776 7.22156776 7.22156776 7.22156776 7.22156776 7.22156776 7.22156776 7.22156776 7.22156776 7.22156776 7.22156776 7.22156776 7.22156776 7.22156776 7.22156776 7.22156776 7.22156776 7.22156776 7.22156776 7.22156776 7.22156776 7.22156776 7.22156776 7.22156776 7.22156776 7.22156776 7.22156776 7.22156776 7.22156776 7.22156776 7.22156776 7.22156776 7.22156776 7.22156776 7.22156776 7.22156776 7.22156776 7.22156776 7.22156776 7.22156776 7.22156776 7.22156776 7.22156776 7.22156776 7.22156776 7.22156776 7.22156776 7.22156776 7.22156776 7.22156776 7.22156776 7.22156776 7.22156776 7.22156776 7.22156776 7.22156776 7.22156776 7.22156776 7.22156776 7.22156776 7.22156776 7.22156776 7.22156776 7.22156776 7.19069602 7.16861896 7.16014940 7.16014940 7.16861896 7.19069602 7.22156776 7.22156776 7.22156776 7.22156776 7.22156776 7.22156776 7.22156776 7.22156776 7.22156776 7.22156776 7.22156776 7.22156776 7.22156776 7.22156776 7.22156776 7.22156776 7.22156776 7.22156776 7.22156776 7.22156776 7.22156776 7.22156776 7.22156776 7.22156776 7.22156776 7.22156776 7.22156776 7.22156776 7.22156776 7.19063064 7.16846785 7.16216175 7.16399630 7.16462788 7.15422464 7.14404338 7.14072133 7.14072133 7.14404338 7.15422464 7.16462788 7.16399630 7.16216175 7.16846785 7.19063064 7.22156776 7.22156776 7.22156776 7.22156776 7.22156776 7.22156776 7.22156776 7.22156776 7.22156776 7.22156776 7.22156776 7.22156776 7.22156776 7.22156776 7.22156776 7.22156776 7.22156776 7.22156776 7.22156776 7.22156776 7.22156776 7.22156776 7.17831104 7.16311823 7.15289649 7.14761854 7.15140675 7.15892818 7.16453498 7.16591943 7.16679046 7.16860193 7.16860193 7.16679046 7.16591943 7.16453498 7.15892818 7.15140675 7.14761854 7.15289649 7.16311823 7.17831104 7.22156776 7.22156776 7.22156776 7.22156776 7.22156776 7.22156776 7.22156776 7.22156776 7.22156776 7.22156776 7.22156776 7.22156776 7.22156776 7.22156776 7.22156776 7.22156776 7.22156776 7.22156776 7.18042501 7.16325799 7.14974577 7.15245362 7.16118198 7.17028758 7.17953885 7.18700244 7.19200704 7.19533545 7.19823103 7.20036265 7.20036265 7.19823103 7.19533545 7.19200704 7.18700244 7.17953885 7.17028758 7.16118198 7.15245362 7.14974577 7.16325799 7.18042501 7.22156776 7.22156776 7.22156776 7.22156776 7.22156776 7.22156776 7.22156776 7.22156776 7.22156776 7.22156776 7.22156776 7.22156776 7.22156776 7.22156776 7.22156776 7.17626581 7.15123945 7.15154423 7.16239507 7.17752959 7.19054938 7.19970742 7.20589793 7.20961416 7.21181957 7.21347379 7.21493796 7.21588174 7.21588174 7.21493796 7.21347379 7.21181957 7.20961416 7.20589793 7.19970742 7.19054938 7.17752959 7.16239507 7.15154423 7.15123945 7.17626581 7.22156776 7.22156776 7.22156776 7.22156776 7.22156776 7.22156776 7.22156776 7.22156776 7.22156776 7.22156776 7.22156776 7.22156776 7.19293986 7.16704173 7.15082149 7.15534916 7.17297632 7.19061051 7.20340662 7.21106836 7.21530578 7.21761057 7.21874198 7.21934039 7.21981595 7.22024159 7.22049626 7.22049626 7.22024159 7.21981595 7.21934039 7.21874198 7.21761057 7.21530578 7.21106836 7.20340662 7.19061051 7.17297632 7.15534916 7.15082149 7.16704173 7.19293986 7.22156776 7.22156776 7.22156776 7.22156776 7.22156776 7.22156776 7.22156776 7.22156776 7.22156776 7.22156776 7.16676580 7.14939554 7.15907162 7.17974621 7.19851427 7.21032507 7.21636611 7.21909161 7.22030728 7.22086246 7.22109098 7.22119951 7.22129214 7.22137612 7.22142293 7.22142293 7.22137612 7.22129214 7.22119951 7.22109098 7.22086246 7.22030728 7.21909161 7.21636611 7.21032507 7.19851427 7.17974621 7.15907162 7.14939554 7.16676580 7.22156776 7.22156776 7.22156776 7.22156776 7.22156776 7.22156776 7.22156776 7.22156776 7.22156776 7.17466890 7.14945705 7.15848520 7.18207932 7.20210041 7.21353067 7.21859697 7.22049915 7.22115117 7.22138615 7.22147761 7.22150918 7.22152276 7.22153575 7.22154765 7.22155372 7.22155372 7.22154765 7.22153575 7.22152276 7.22150918 7.22147761 7.22138615 7.22115117 7.22049915 7.21859697 7.21353067 7.20210041 7.18207932 7.15848520 7.14945705 7.17466890 7.22156776 7.22156776 7.22156776 7.22156776 7.22156776 7.22156776 7.22156776 7.17775105 7.14633609 7.15162328 7.17809924 7.20165352 7.21437093 7.21939403 7.22097878 7.22140847 7.22151756 7.22154900 7.22155951 7.22156249 7.22156367 7.22156502 7.22156625 7.22156680 7.22156680 7.22156625 7.22156502 7.22156367 7.22156249 7.22155951 7.22154900 7.22151756 7.22140847 7.22097878 7.21939403 7.21437093 7.20165352 7.17809924 7.15162328 7.14633609 7.17775105 7.22156776 7.22156776 7.22156776 7.22156776 7.22156776 7.22156776 7.16060064 7.14245806 7.16564195 7.19531513 7.21263222 7.21923087 7.22107260 7.22147579 7.22155035 7.22156345 7.22156639 7.22156723 7.22156742 7.22156749 7.22156759 7.22156769 7.22156772 7.22156772 7.22156769 7.22156759 7.22156749 7.22156742 7.22156723 7.22156639 7.22156345 7.22155035 7.22147579 7.22107260 7.21923087 7.21263222 7.19531513 7.16564195 7.14245806 7.16060064 7.22156776 7.22156776 7.22156776 7.22156776 7.22156776 7.22156776 7.15577904 7.14870417 7.17882307 7.20537818 7.21727113 7.22073275 7.22144505 7.22155334 7.22156614 7.22156749 7.22156769 7.22156774 7.22156775 7.22156775 7.22156776 7.22156776 7.22156776 7.22156776 7.22156776 7.22156776 7.22156775 7.22156775 7.22156774 7.22156769 7.22156749 7.22156614 7.22155334 7.22144505 7.22073275 7.21727113 7.20537818 7.17882307 7.14870417 7.15577904 7.22156776 7.22156776 7.22156776 7.22156776 7.22156776 7.19505273 7.14723233 7.15141648 7.18496235 7.20931981 7.21874639 7.22110458 7.22151275 7.22156297 7.22156743 7.22156774 7.22156776 7.22156776 7.22156776 7.22156776 7.22156776 7.22156776 7.22156776 7.22156776 7.22156776 7.22156776 7.22156776 7.22156776 7.22156776 7.22156776 7.22156774 7.22156743 7.22156297 7.22151275 7.22110458 7.21874639 7.20931981 7.18496235 7.15141648 7.14723233 7.19505273 7.22156776 7.22156776 7.22156776 7.22156776 7.19505273 7.14723233 7.15141648 7.18496235 7.20931981 7.21874639 7.22110458 7.22151275 7.22156297 7.22156743 7.22156774 7.22156776 7.22156776 7.22156776 7.22156776 7.22156776 7.22156776 7.22156776 7.22156776 7.22156776 7.22156776 7.22156776 7.22156776 7.22156776 7.22156776 7.22156774 7.22156743 7.22156297 7.22151275 7.22110458 7.21874639 7.20931981 7.18496235 7.15141648 7.14723233 7.19505273 7.22156776 7.22156776 7.22156776 7.22156776 7.22156776 7.15577904 7.14870417 7.17882307 7.20537818 7.21727113 7.22073275 7.22144505 7.22155334 7.22156614 7.22156749 7.22156769 7.22156774 7.22156775 7.22156775 7.22156776 7.22156776 7.22156776 7.22156776 7.22156776 7.22156776 7.22156775 7.22156775 7.22156774 7.22156769 7.22156749 7.22156614 7.22155334 7.22144505 7.22073275 7.21727113 7.20537818 7.17882307 7.14870417 7.15577904 7.22156776 7.22156776 7.22156776 7.22156776 7.22156776 7.22156776 7.16060064 7.14245806 7.16564195 7.19531513 7.21263222 7.21923087 7.22107260 7.22147579 7.22155035 7.22156345 7.22156639 7.22156723 7.22156742 7.22156749 7.22156759 7.22156769 7.22156772 7.22156772 7.22156769 7.22156759 7.22156749 7.22156742 7.22156723 7.22156639 7.22156345 7.22155035 7.22147579 7.22107260 7.21923087 7.21263222 7.19531513 7.16564195 7.14245806 7.16060064 7.22156776 7.22156776 7.22156776 7.22156776 7.22156776 7.22156776 7.17775105 7.14633609 7.15162328 7.17809924 7.20165352 7.21437093 7.21939403 7.22097878 7.22140847 7.22151756 7.22154900 7.22155951 7.22156249 7.22156367 7.22156502 7.22156625 7.22156680 7.22156680 7.22156625 7.22156502 7.22156367 7.22156249 7.22155951 7.22154900 7.22151756 7.22140847 7.22097878 7.21939403 7.21437093 7.20165352 7.17809924 7.15162328 7.14633609 7.17775105 7.22156776 7.22156776 7.22156776 7.22156776 7.22156776 7.22156776 7.22156776 7.17466890 7.14945705 7.15848520 7.18207932 7.20210041 7.21353067 7.21859697 7.22049915 7.22115117 7.22138615 7.22147761 7.22150918 7.22152276 7.22153575 7.22154765 7.22155372 7.22155372 7.22154765 7.22153575 7.22152276 7.22150918 7.22147761 7.22138615 7.22115117 7.22049915 7.21859697 7.21353067 7.20210041 7.18207932 7.15848520 7.14945705 7.17466890 7.22156776 7.22156776 7.22156776 7.22156776 7.22156776 7.22156776 7.22156776 7.22156776 7.22156776 7.16676580 7.14939554 7.15907162 7.17974621 7.19851427 7.21032507 7.21636611 7.21909161 7.22030728 7.22086246 7.22109098 7.22119951 7.22129214 7.22137612 7.22142293 7.22142293 7.22137612 7.22129214 7.22119951 7.22109098 7.22086246 7.22030728 7.21909161 7.21636611 7.21032507 7.19851427 7.17974621 7.15907162 7.14939554 7.16676580 7.22156776 7.22156776 7.22156776 7.22156776 7.22156776 7.22156776 7.22156776 7.22156776 7.22156776 7.22156776 7.19293986 7.16704173 7.15082149 7.15534916 7.17297632 7.19061051 7.20340662 7.21106836 7.21530578 7.21761057 7.21874198 7.21934039 7.21981595 7.22024159 7.22049626 7.22049626 7.22024159 7.21981595 7.21934039 7.21874198 7.21761057 7.21530578 7.21106836 7.20340662 7.19061051 7.17297632 7.15534916 7.15082149 7.16704173 7.19293986 7.22156776 7.22156776 7.22156776 7.22156776 7.22156776 7.22156776 7.22156776 7.22156776 7.22156776 7.22156776 7.22156776 7.22156776 7.17626581 7.15123945 7.15154423 7.16239507 7.17752959 7.19054938 7.19970742 7.20589793 7.20961416 7.21181957 7.21347379 7.21493796 7.21588174 7.21588174 7.21493796 7.21347379 7.21181957 7.20961416 7.20589793 7.19970742 7.19054938 7.17752959 7.16239507 7.15154423 7.15123945 7.17626581 7.22156776 7.22156776 7.22156776 7.22156776 7.22156776 7.22156776 7.22156776 7.22156776 7.22156776 7.22156776 7.22156776 7.22156776 7.22156776 7.22156776 7.22156776 7.18042501 7.16325799 7.14974577 7.15245362 7.16118198 7.17028758 7.17953885 7.18700244 7.19200704 7.19533545 7.19823103 7.20036265 7.20036265 7.19823103 7.19533545 7.19200704 7.18700244 7.17953885 7.17028758 7.16118198 7.15245362 7.14974577 7.16325799 7.18042501 7.22156776 7.22156776 7.22156776 7.22156776 7.22156776 7.22156776 7.22156776 7.22156776 7.22156776 7.22156776 7.22156776 7.22156776 7.22156776 7.22156776 7.22156776 7.22156776 7.22156776 7.22156776 7.17831104 7.16311823 7.15289649 7.14761854 7.15140675 7.15892818 7.16453498 7.16591943 7.16679046 7.16860193 7.16860193 7.16679046 7.16591943 7.16453498 7.15892818 7.15140675 7.14761854 7.15289649 7.16311823 7.17831104 7.22156776 7.22156776 7.22156776 7.22156776 7.22156776 7.22156776 7.22156776 7.22156776 7.22156776 7.22156776 7.22156776 7.22156776 7.22156776 7.22156776 7.22156776 7.22156776 7.22156776 7.22156776 7.22156776 7.22156776 7.22156776 7.22156776 7.19063064 7.16846785 7.16216175 7.16399630 7.16462788 7.15422464 7.14404338 7.14072133 7.14072133 7.14404338 7.15422464 7.16462788 7.16399630 7.16216175 7.16846785 7.19063064 7.22156776 7.22156776 7.22156776 7.22156776 7.22156776 7.22156776 7.22156776 7.22156776 7.22156776 7.22156776 7.22156776 7.22156776 7.22156776 7.22156776 7.22156776 7.22156776 7.22156776 7.22156776 7.22156776 7.22156776 7.22156776 7.22156776 7.22156776 7.22156776 7.22156776 7.22156776 7.22156776 7.22156776 7.22156776 7.19069602 7.16861896 7.16014940 7.16014940 7.16861896 7.19069602 7.22156776 7.22156776 7.22156776 7.22156776 7.22156776 7.22156776 7.22156776 7.22156776 7.22156776 7.22156776 7.22156776 7.22156776 7.22156776 7.22156776 7.22156776 7.22156776 7.22156776 7.22156776 7.22156776 7.22156776 7.22156776 7.22156776 7.22156776 7.22156776 7.22156776 7.22156776 7.22156776 7.22156776 7.22156776 7.22156776 7.22156776 7.22156776 7.22156776 7.22156776 7.22156776 7.22156776 7.22156776 7.22156776 7.22156776 7.22156776 7.22156776 7.22156776 7.22156776 7.22156776 7.22156776 7.22156776 7.22156776 7.22156776 7.22156776 7.22156776 7.22156776 7.22156776 7.22156776 7.22156776 7.22156776 7.22156776 7.22156776 7.22156776 7.22156776 7.22156776 7.22156776 7.22156776 7.22156776 7.22156776 7.22156776 7.22156776 7.22156776 7.22156776 7.22156776 7.22156776 7.22156776 7.22156776 7.22156776 7.22156776 7.22156776 7.22156776 7.22156776 7.22156776 7.22156776 7.22156776 7.22156776 7.22156776 7.22156776 7.22156776 7.22156776 7.22156776 7.22156776 7.22156776 7.22156776 7.22156776 7.22156776 7.22156776 7.22156776 7.22156776 7.22156776 7.22156776 7.22156776 7.22156776 7.22156776 7.22156776 7.22156776 7.22156776 7.22156776 7.22156776 7.22156776 7.22156776 7.22156776 7.22156776 7.22156776 7.22156776 7.22156776 7.22156776 7.22156776 7.22156776 7.22156776 7.22156776 7.22156776 7.22156776 7.22156776 7.22156776 7.22156776 7.22156776 7.22156776 7.22156776 7.22156776 7.22156776 7.22156776 7.22156776 7.22156776 7.22156776 7.22156776 7.22156776 7.22156776 7.22156776 7.22156776 7.22156776 7.22156776 7.22156776 7.22156776 7.22156776 7.22156776 7.22156776 7.22156776 7.22156776 7.22156776 7.22156776 7.22156776 7.22156776 7.22156776 7.22156776 7.22156776 7.22156776 7.22156776 7.22156776 7.22156776 7.22156776 7.22156776 7.22156776 7.22156776 7.22156776 7.22156776 7.22156776 7.22156776 7.22156776 7.22156776 7.22156776 7.22156776 7.22156776 7.22156776 7.22156776 7.22156776 7.22156776 7.22156776 7.22156776 7.22156776 7.22156776 7.22156776 7.22156776 7.22156776 7.22156776 7.22156776 7.22156776 7.22156776 7.22156776 7.22156776 7.22156776 7.22156776 7.22156776 7.22156776 7.22156776 7.22156776 7.22156776 7.22156776 7.22156776 7.22156776 7.22156776 7.22156776 7.22156776 7.22156776 7.22156776 7.22156776 7.22156776 7.22156776 7.22156776 7.22156776 7.22156776 7.22156776 7.22156776 7.22156776 7.22156776 7.22156776 7.22156776 7.22156776 7.22156776 7.22156776 7.22156776 7.22156776 7.22156776 7.22156776 7.22156776 7.22156776 7.22156776 7.22156776 7.22156776 7.22156776 7.22156776 7.22156776 7.22156776 7.22156776 7.22156776 7.22156776 7.22156776 7.22156776 7.22156776 7.22156776 7.22156776 7.22156776 7.22156776 7.22156776 7.22156776 7.22156776 7.22156776 7.22156776 7.22156776 7.22156776 7.22156776 7.22156776 7.22156776 7.22156776 7.22156776 7.22156776 7.22156776 7.22156776 7.22156776 7.22156776 7.22156776 7.22156776 7.22156776 7.22156776 7.22156776 7.22156776 7.22156776 7.22156776 7.22156776 7.22156776 7.22156776 7.22156776 7.22156776 7.22156776 7.22156776 7.22156776 7.22156776 7.22156776 7.22156776 7.22156776 7.22156776 7.22156776 7.22156776 7.22156776 7.22156776 7.22156776 7.22156776 7.22156776 7.22156776 7.22156776 7.22156776 7.22156776 7.22156776 7.22156776 7.22156776 7.22156776 7.22156776 7.22156776 7.22156776 7.22156776 7.22156776 7.22156776 7.22156776 7.22156776 7.22156776 7.22156776 7.22156776 7.22156776 7.22156776 7.22156776 7.22156776 7.22156776 7.22156776 7.22156776 7.22156776 7.22156776 7.22156776 7.22156776 7.22156776 7.22156776 7.22156776 7.22156776 7.22156776 7.22156776 7.22156776 7.22156776 7.22156776 7.22156776 7.22156776 7.22156776 7.22156776 7.22156776 7.22156776 7.22156776 7.22156776 7.22156776 7.22156776 7.22156776 7.22156776 7.22156776 7.22156776 7.22156776 