# vtk DataFile Version 3.0
VTK - Matlab export
ASCII
DATASET STRUCTURED_POINTS
DIMENSIONS 40 40 1
SPACING 1 1 1
ORIGIN 0 0 0
POINT_DATA 1600
SCALARS Proofstrength float 1
LOOKUP_TABLE default
142.25514280 142.25514280 142.25514280 142.25514280 142.25514280 142.25514280 142.25514280 142.25514280 142.25514280 142.25514280 142.25514280 142.25514280 142.25514280 142.25514280 142.25514280 142.25514280 142.25514280 142.25514280 142.25514280 142.25514280 142.25514280 142.25514280 142.25514280 142.25514280 142.25514280 142.25514280 142.25514280 142.25514280 142.25514280 142.25514280 142.25514280 142.25514280 142.25514280 142.25514280 142.25514280 142.25514280 142.25514280 142.25514280 142.25514280 142.25514280 142.25514280 142.25514280 142.25514280 142.25514280 142.25514280 142.25514280 142.25514280 142.25514280 142.25514280 142.25514280 142.25514280 142.25514280 142.25514280 142.25514280 142.25514280 142.25514280 142.25514280 142.25514280 142.25514280 142.25514280 142.25514280 142.25514280 142.25514280 142.25514280 142.25514280 142.25514280 142.25514280 142.25514280 142.25514280 142.25514280 142.25514280 142.25514280 142.25514280 142.25514280 142.25514280 142.25514280 142.25514280 142.25514280 142.25514280 142.25514280 142.25514280 142.25514280 142.25514280 142.25514280 142.25514280 142.25514280 142.25514280 142.25514280 142.25514280 142.25514280 142.25514280 142.25514280 142.25514280 142.25514280 142.25514280 142.25514280 142.25514280 142.25514280 142.25514280 142.25514280 142.25514280 142.25514280 142.25514280 142.25514280 142.25514280 142.25514280 142.25514280 142.25514280 142.25514280 142.25514280 142.25514280 142.25514280 142.25514280 142.25514280 142.25514280 142.25514280 142.25514280 142.25514280 142.25514280 142.25514280 142.25514280 142.25514280 142.25514280 142.25514280 142.25514280 142.25514280 142.25514280 142.25514280 142.25514280 142.25514280 142.25514280 142.25514280 142.25514280 142.25514280 142.25514280 142.25514280 142.25514280 142.25514280 142.25514280 142.25514280 142.25514280 142.25514280 142.25514280 142.25514280 142.25514280 142.25514280 142.25514280 142.25514280 142.25514280 142.25514280 142.25514280 142.25514280 142.25514280 142.25514280 142.25514280 142.25514280 142.25514280 142.25514280 142.25514280 142.25514280 142.25514280 142.25514280 142.25514280 142.25514280 142.25514280 142.25514280 142.25514280 142.25514280 142.25514280 142.25514280 142.25514280 142.25514280 142.25514280 142.25514280 142.25514280 142.25514280 142.25514280 142.25514280 142.25514280 142.25514280 142.25514280 142.25514280 142.25514280 142.25514280 142.25514280 142.25514280 142.25514280 142.25514280 142.25514280 142.25514280 142.25514280 142.25514280 142.25514280 142.25514280 142.25514280 142.25514280 142.25514280 142.25514280 142.25514280 142.25514280 142.25514280 142.25514280 142.25514280 142.25514280 142.25514280 142.25514280 142.25514280 142.25514280 142.25514280 142.25514280 142.25514280 142.25514280 142.25514280 142.25514280 142.25514280 142.25514280 142.25514280 142.25514280 142.25514280 142.25514280 142.25514280 142.25514280 142.25514280 142.25514280 142.25514280 142.25514280 142.25514280 142.25514280 142.25514280 142.25514280 142.25514280 142.25514280 142.25514280 142.25514280 142.25514280 142.25514280 142.25514280 142.25514280 142.25514280 142.25514280 142.25514280 142.25514280 142.25514280 142.25514280 142.25514280 142.25514280 142.25514280 142.25514280 142.25514280 142.25514280 142.25514280 142.25514280 142.25514280 142.25514280 142.25514280 142.25514280 142.25514280 142.25514280 142.25514280 142.25514280 142.25514280 142.25514280 142.25514280 142.25514280 142.25514280 142.25514280 142.25514280 142.25514280 142.25514280 142.25514280 142.25514280 142.25514280 142.25514280 142.25514280 142.25514280 142.25514280 142.25514280 142.25514280 142.25514280 142.25514280 142.25514280 142.25514280 142.25514280 142.25514280 142.25514280 142.25514280 142.25514280 142.25514280 142.25514280 142.25514280 142.25514280 142.25514280 142.25514280 142.25514280 142.25514280 142.25514280 142.25514280 142.25514280 142.25514280 142.25514280 142.25514280 142.25514280 142.25514280 142.25514280 142.25514280 142.25514280 142.25514280 142.25514280 142.25514280 142.25514280 142.25514280 142.25514280 142.25514280 142.25514280 142.25514280 142.25514280 142.25514280 142.25514280 142.25514280 142.25514280 142.25514280 142.25514280 142.25514280 142.25514280 142.25514280 142.25514280 142.25514280 142.25514280 142.25514280 142.25514280 142.25514280 142.25514280 142.25514280 142.25514280 142.25514280 142.25514280 142.25514280 142.25845007 142.26028813 142.26097611 142.26097611 142.26028813 142.25845007 142.25514280 142.25514280 142.25514280 142.25514280 142.25514280 142.25514280 142.25514280 142.25514280 142.25514280 142.25514280 142.25514280 142.25514280 142.25514280 142.25514280 142.25514280 142.25514280 142.25514280 142.25514280 142.25514280 142.25514280 142.25514280 142.25514280 142.25514280 142.25514280 142.25514280 142.25514280 142.25514280 142.25514280 142.25514280 142.25863444 142.26123035 142.26273163 142.26366071 142.26449751 142.26600519 142.26727143 142.26789098 142.26789098 142.26727143 142.26600519 142.26449751 142.26366071 142.26273163 142.26123035 142.25863444 142.25514280 142.25514280 142.25514280 142.25514280 142.25514280 142.25514280 142.25514280 142.25514280 142.25514280 142.25514280 142.25514280 142.25514280 142.25514280 142.25514280 142.25514280 142.25514280 142.25514280 142.25514280 142.25514280 142.25514280 142.25514280 142.25514280 142.26031882 142.26315984 142.26594509 142.26838635 142.27009551 142.27123188 142.27210755 142.27300430 142.27375486 142.27415667 142.27415667 142.27375486 142.27300430 142.27210755 142.27123188 142.27009551 142.26838635 142.26594509 142.26315984 142.26031882 142.25514280 142.25514280 142.25514280 142.25514280 142.25514280 142.25514280 142.25514280 142.25514280 142.25514280 142.25514280 142.25514280 142.25514280 142.25514280 142.25514280 142.25514280 142.25514280 142.25514280 142.25514280 142.25998785 142.26340764 142.26736149 142.27040768 142.27281808 142.27467947 142.27594126 142.27672511 142.27724099 142.27765917 142.27798875 142.27816939 142.27816939 142.27798875 142.27765917 142.27724099 142.27672511 142.27594126 142.27467947 142.27281808 142.27040768 142.26736149 142.26340764 142.25998785 142.25514280 142.25514280 142.25514280 142.25514280 142.25514280 142.25514280 142.25514280 142.25514280 142.25514280 142.25514280 142.25514280 142.25514280 142.25514280 142.25514280 142.25514280 142.26128297 142.26637113 142.27041290 142.27377059 142.27620047 142.27781524 142.27878581 142.27924678 142.27936491 142.27931961 142.27924727 142.27920197 142.27918354 142.27918354 142.27920197 142.27924727 142.27931961 142.27936491 142.27924678 142.27878581 142.27781524 142.27620047 142.27377059 142.27041290 142.26637113 142.26128297 142.25514280 142.25514280 142.25514280 142.25514280 142.25514280 142.25514280 142.25514280 142.25514280 142.25514280 142.25514280 142.25514280 142.25514280 142.25825020 142.26260995 142.26799878 142.27265508 142.27615383 142.27852090 142.27983116 142.28030121 142.28018911 142.27972262 142.27909778 142.27847398 142.27795986 142.27760797 142.27743200 142.27743200 142.27760797 142.27795986 142.27847398 142.27909778 142.27972262 142.28018911 142.28030121 142.27983116 142.27852090 142.27615383 142.27265508 142.26799878 142.26260995 142.25825020 142.25514280 142.25514280 142.25514280 142.25514280 142.25514280 142.25514280 142.25514280 142.25514280 142.25514280 142.25514280 142.26265514 142.26874706 142.27394209 142.27780283 142.28016816 142.28117544 142.28110883 142.28031984 142.27914056 142.27783232 142.27658096 142.27550775 142.27468076 142.27412761 142.27385239 142.27385239 142.27412761 142.27468076 142.27550775 142.27658096 142.27783232 142.27914056 142.28031984 142.28110883 142.28117544 142.28016816 142.27780283 142.27394209 142.26874706 142.26265514 142.25514280 142.25514280 142.25514280 142.25514280 142.25514280 142.25514280 142.25514280 142.25514280 142.25514280 142.26128870 142.26815522 142.27416925 142.27869233 142.28139571 142.28233065 142.28184224 142.28040330 142.27847713 142.27643178 142.27451281 142.27285921 142.27153470 142.27055653 142.26991764 142.26960337 142.26960337 142.26991764 142.27055653 142.27153470 142.27285921 142.27451281 142.27643178 142.27847713 142.28040330 142.28184224 142.28233065 142.28139571 142.27869233 142.27416925 142.26815522 142.26128870 142.25514280 142.25514280 142.25514280 142.25514280 142.25514280 142.25514280 142.25514280 142.25966248 142.26618654 142.27293154 142.27848529 142.28206532 142.28345887 142.28293651 142.28106051 142.27846057 142.27566873 142.27304629 142.27078735 142.26896295 142.26757184 142.26658030 142.26594757 142.26564033 142.26564033 142.26594757 142.26658030 142.26757184 142.26896295 142.27078735 142.27304629 142.27566873 142.27846057 142.28106051 142.28293651 142.28345887 142.28206532 142.27848529 142.27293154 142.26618654 142.25966248 142.25514280 142.25514280 142.25514280 142.25514280 142.25514280 142.25514280 142.26223082 142.26968450 142.27649153 142.28153380 142.28415942 142.28433895 142.28256207 142.27957972 142.27613378 142.27278321 142.26985346 142.26747275 142.26564242 142.26430270 142.26337784 142.26280085 142.26252440 142.26252440 142.26280085 142.26337784 142.26430270 142.26564242 142.26747275 142.26985346 142.27278321 142.27613378 142.27957972 142.28256207 142.28433895 142.28415942 142.28153380 142.27649153 142.26968450 142.26223082 142.25514280 142.25514280 142.25514280 142.25514280 142.25514280 142.25514280 142.26386599 142.27196817 142.27879895 142.28340426 142.28526926 142.28453197 142.28185692 142.27813032 142.27416091 142.27050845 142.26745622 142.26507428 142.26330905 142.26205823 142.26121764 142.26070360 142.26046030 142.26046030 142.26070360 142.26121764 142.26205823 142.26330905 142.26507428 142.26745622 142.27050845 142.27416091 142.27813032 142.28185692 142.28453197 142.28526926 142.28340426 142.27879895 142.27196817 142.26386599 142.25514280 142.25514280 142.25514280 142.25514280 142.25514280 142.25778744 142.26521067 142.27320388 142.27994298 142.28427909 142.28572174 142.28449469 142.28135626 142.27726171 142.27304943 142.26927318 142.26618902 142.26383354 142.26212337 142.26093429 142.26014808 142.25967328 142.25945032 142.25945032 142.25967328 142.26014808 142.26093429 142.26212337 142.26383354 142.26618902 142.26927318 142.27304943 142.27726171 142.28135626 142.28449469 142.28572174 142.28427909 142.27994298 142.27320388 142.26521067 142.25778744 142.25514280 142.25514280 142.25514280 142.25514280 142.25778744 142.26521067 142.27320388 142.27994298 142.28427909 142.28572174 142.28449469 142.28135626 142.27726171 142.27304943 142.26927318 142.26618902 142.26383354 142.26212337 142.26093429 142.26014808 142.25967328 142.25945032 142.25945032 142.25967328 142.26014808 142.26093429 142.26212337 142.26383354 142.26618902 142.26927318 142.27304943 142.27726171 142.28135626 142.28449469 142.28572174 142.28427909 142.27994298 142.27320388 142.26521067 142.25778744 142.25514280 142.25514280 142.25514280 142.25514280 142.25514280 142.26386599 142.27196817 142.27879895 142.28340426 142.28526926 142.28453197 142.28185692 142.27813032 142.27416091 142.27050845 142.26745622 142.26507428 142.26330905 142.26205823 142.26121764 142.26070360 142.26046030 142.26046030 142.26070360 142.26121764 142.26205823 142.26330905 142.26507428 142.26745622 142.27050845 142.27416091 142.27813032 142.28185692 142.28453197 142.28526926 142.28340426 142.27879895 142.27196817 142.26386599 142.25514280 142.25514280 142.25514280 142.25514280 142.25514280 142.25514280 142.26223082 142.26968450 142.27649153 142.28153380 142.28415942 142.28433895 142.28256207 142.27957972 142.27613378 142.27278321 142.26985346 142.26747275 142.26564242 142.26430270 142.26337784 142.26280085 142.26252440 142.26252440 142.26280085 142.26337784 142.26430270 142.26564242 142.26747275 142.26985346 142.27278321 142.27613378 142.27957972 142.28256207 142.28433895 142.28415942 142.28153380 142.27649153 142.26968450 142.26223082 142.25514280 142.25514280 142.25514280 142.25514280 142.25514280 142.25514280 142.25966248 142.26618654 142.27293154 142.27848529 142.28206532 142.28345887 142.28293651 142.28106051 142.27846057 142.27566873 142.27304629 142.27078735 142.26896295 142.26757184 142.26658030 142.26594757 142.26564033 142.26564033 142.26594757 142.26658030 142.26757184 142.26896295 142.27078735 142.27304629 142.27566873 142.27846057 142.28106051 142.28293651 142.28345887 142.28206532 142.27848529 142.27293154 142.26618654 142.25966248 142.25514280 142.25514280 142.25514280 142.25514280 142.25514280 142.25514280 142.25514280 142.26128870 142.26815522 142.27416925 142.27869233 142.28139571 142.28233065 142.28184224 142.28040330 142.27847713 142.27643178 142.27451281 142.27285921 142.27153470 142.27055653 142.26991764 142.26960337 142.26960337 142.26991764 142.27055653 142.27153470 142.27285921 142.27451281 142.27643178 142.27847713 142.28040330 142.28184224 142.28233065 142.28139571 142.27869233 142.27416925 142.26815522 142.26128870 142.25514280 142.25514280 142.25514280 142.25514280 142.25514280 142.25514280 142.25514280 142.25514280 142.25514280 142.26265514 142.26874706 142.27394209 142.27780283 142.28016816 142.28117544 142.28110883 142.28031984 142.27914056 142.27783232 142.27658096 142.27550775 142.27468076 142.27412761 142.27385239 142.27385239 142.27412761 142.27468076 142.27550775 142.27658096 142.27783232 142.27914056 142.28031984 142.28110883 142.28117544 142.28016816 142.27780283 142.27394209 142.26874706 142.26265514 142.25514280 142.25514280 142.25514280 142.25514280 142.25514280 142.25514280 142.25514280 142.25514280 142.25514280 142.25514280 142.25825020 142.26260995 142.26799878 142.27265508 142.27615383 142.27852090 142.27983116 142.28030121 142.28018911 142.27972262 142.27909778 142.27847398 142.27795986 142.27760797 142.27743200 142.27743200 142.27760797 142.27795986 142.27847398 142.27909778 142.27972262 142.28018911 142.28030121 142.27983116 142.27852090 142.27615383 142.27265508 142.26799878 142.26260995 142.25825020 142.25514280 142.25514280 142.25514280 142.25514280 142.25514280 142.25514280 142.25514280 142.25514280 142.25514280 142.25514280 142.25514280 142.25514280 142.26128297 142.26637113 142.27041290 142.27377059 142.27620047 142.27781524 142.27878581 142.27924678 142.27936491 142.27931961 142.27924727 142.27920197 142.27918354 142.27918354 142.27920197 142.27924727 142.27931961 142.27936491 142.27924678 142.27878581 142.27781524 142.27620047 142.27377059 142.27041290 142.26637113 142.26128297 142.25514280 142.25514280 142.25514280 142.25514280 142.25514280 142.25514280 142.25514280 142.25514280 142.25514280 142.25514280 142.25514280 142.25514280 142.25514280 142.25514280 142.25514280 142.25998785 142.26340764 142.26736149 142.27040768 142.27281808 142.27467947 142.27594126 142.27672511 142.27724099 142.27765917 142.27798875 142.27816939 142.27816939 142.27798875 142.27765917 142.27724099 142.27672511 142.27594126 142.27467947 142.27281808 142.27040768 142.26736149 142.26340764 142.25998785 142.25514280 142.25514280 142.25514280 142.25514280 142.25514280 142.25514280 142.25514280 142.25514280 142.25514280 142.25514280 142.25514280 142.25514280 142.25514280 142.25514280 142.25514280 142.25514280 142.25514280 142.25514280 142.26031882 142.26315984 142.26594509 142.26838635 142.27009551 142.27123188 142.27210755 142.27300430 142.27375486 142.27415667 142.27415667 142.27375486 142.27300430 142.27210755 142.27123188 142.27009551 142.26838635 142.26594509 142.26315984 142.26031882 142.25514280 142.25514280 142.25514280 142.25514280 142.25514280 142.25514280 142.25514280 142.25514280 142.25514280 142.25514280 142.25514280 142.25514280 142.25514280 142.25514280 142.25514280 142.25514280 142.25514280 142.25514280 142.25514280 142.25514280 142.25514280 142.25514280 142.25863444 142.26123035 142.26273163 142.26366071 142.26449751 142.26600519 142.26727143 142.26789098 142.26789098 142.26727143 142.26600519 142.26449751 142.26366071 142.26273163 142.26123035 142.25863444 142.25514280 142.25514280 142.25514280 142.25514280 142.25514280 142.25514280 142.25514280 142.25514280 142.25514280 142.25514280 142.25514280 142.25514280 142.25514280 142.25514280 142.25514280 142.25514280 142.25514280 142.25514280 142.25514280 142.25514280 142.25514280 142.25514280 142.25514280 142.25514280 142.25514280 142.25514280 142.25514280 142.25514280 142.25514280 142.25845007 142.26028813 142.26097611 142.26097611 142.26028813 142.25845007 142.25514280 142.25514280 142.25514280 142.25514280 142.25514280 142.25514280 142.25514280 142.25514280 142.25514280 142.25514280 142.25514280 142.25514280 142.25514280 142.25514280 142.25514280 142.25514280 142.25514280 142.25514280 142.25514280 142.25514280 142.25514280 142.25514280 142.25514280 142.25514280 142.25514280 142.25514280 142.25514280 142.25514280 142.25514280 142.25514280 142.25514280 142.25514280 142.25514280 142.25514280 142.25514280 142.25514280 142.25514280 142.25514280 142.25514280 142.25514280 142.25514280 142.25514280 142.25514280 142.25514280 142.25514280 142.25514280 142.25514280 142.25514280 142.25514280 142.25514280 142.25514280 142.25514280 142.25514280 142.25514280 142.25514280 142.25514280 142.25514280 142.25514280 142.25514280 142.25514280 142.25514280 142.25514280 142.25514280 142.25514280 142.25514280 142.25514280 142.25514280 142.25514280 142.25514280 142.25514280 142.25514280 142.25514280 142.25514280 142.25514280 142.25514280 142.25514280 142.25514280 142.25514280 142.25514280 142.25514280 142.25514280 142.25514280 142.25514280 142.25514280 142.25514280 142.25514280 142.25514280 142.25514280 142.25514280 142.25514280 142.25514280 142.25514280 142.25514280 142.25514280 142.25514280 142.25514280 142.25514280 142.25514280 142.25514280 142.25514280 142.25514280 142.25514280 142.25514280 142.25514280 142.25514280 142.25514280 142.25514280 142.25514280 142.25514280 142.25514280 142.25514280 142.25514280 142.25514280 142.25514280 142.25514280 142.25514280 142.25514280 142.25514280 142.25514280 142.25514280 142.25514280 142.25514280 142.25514280 142.25514280 142.25514280 142.25514280 142.25514280 142.25514280 142.25514280 142.25514280 142.25514280 142.25514280 142.25514280 142.25514280 142.25514280 142.25514280 142.25514280 142.25514280 142.25514280 142.25514280 142.25514280 142.25514280 142.25514280 142.25514280 142.25514280 142.25514280 142.25514280 142.25514280 142.25514280 142.25514280 142.25514280 142.25514280 142.25514280 142.25514280 142.25514280 142.25514280 142.25514280 142.25514280 142.25514280 142.25514280 142.25514280 142.25514280 142.25514280 142.25514280 142.25514280 142.25514280 142.25514280 142.25514280 142.25514280 142.25514280 142.25514280 142.25514280 142.25514280 142.25514280 142.25514280 142.25514280 142.25514280 142.25514280 142.25514280 142.25514280 142.25514280 142.25514280 142.25514280 142.25514280 142.25514280 142.25514280 142.25514280 142.25514280 142.25514280 142.25514280 142.25514280 142.25514280 142.25514280 142.25514280 142.25514280 142.25514280 142.25514280 142.25514280 142.25514280 142.25514280 142.25514280 142.25514280 142.25514280 142.25514280 142.25514280 142.25514280 142.25514280 142.25514280 142.25514280 142.25514280 142.25514280 142.25514280 142.25514280 142.25514280 142.25514280 142.25514280 142.25514280 142.25514280 142.25514280 142.25514280 142.25514280 142.25514280 142.25514280 142.25514280 142.25514280 142.25514280 142.25514280 142.25514280 142.25514280 142.25514280 142.25514280 142.25514280 142.25514280 142.25514280 142.25514280 142.25514280 142.25514280 142.25514280 142.25514280 142.25514280 142.25514280 142.25514280 142.25514280 142.25514280 142.25514280 142.25514280 142.25514280 142.25514280 142.25514280 142.25514280 142.25514280 142.25514280 142.25514280 142.25514280 142.25514280 142.25514280 142.25514280 142.25514280 142.25514280 142.25514280 142.25514280 142.25514280 142.25514280 142.25514280 142.25514280 142.25514280 142.25514280 142.25514280 142.25514280 142.25514280 142.25514280 142.25514280 142.25514280 142.25514280 142.25514280 142.25514280 142.25514280 142.25514280 142.25514280 142.25514280 142.25514280 142.25514280 142.25514280 142.25514280 142.25514280 142.25514280 142.25514280 142.25514280 142.25514280 142.25514280 142.25514280 142.25514280 142.25514280 142.25514280 142.25514280 142.25514280 142.25514280 142.25514280 142.25514280 142.25514280 142.25514280 142.25514280 142.25514280 142.25514280 142.25514280 142.25514280 142.25514280 142.25514280 142.25514280 142.25514280 142.25514280 142.25514280 142.25514280 142.25514280 142.25514280 142.25514280 142.25514280 142.25514280 142.25514280 142.25514280 142.25514280 142.25514280 142.25514280 142.25514280 142.25514280 142.25514280 142.25514280 142.25514280 142.25514280 142.25514280 142.25514280 142.25514280 142.25514280 142.25514280 142.25514280 142.25514280 142.25514280 