# vtk DataFile Version 3.0
VTK - Matlab export
ASCII
DATASET STRUCTURED_POINTS
DIMENSIONS 40 40 1
SPACING 1 1 1
ORIGIN 0 0 0
POINT_DATA 1600
SCALARS lambda-2 float 1
LOOKUP_TABLE default
7.22156776 7.22156776 7.22156776 7.22156776 7.22156776 7.22156776 7.22156776 7.22156776 7.22156776 7.22156776 7.22156776 7.22156776 7.22156776 7.22156776 7.22156776 7.22156776 7.22156776 7.22156776 7.22156776 7.22156776 7.22156776 7.22156776 7.22156776 7.22156776 7.22156776 7.22156776 7.22156776 7.22156776 7.22156776 7.22156776 7.22156776 7.22156776 7.22156776 7.22156776 7.22156776 7.22156776 7.22156776 7.22156776 7.22156776 7.22156776 7.22156776 7.22156776 7.22156776 7.22156776 7.22156776 7.22156776 7.22156776 7.22156776 7.22156776 7.22156776 7.22156776 7.22156776 7.22156776 7.22156776 7.22156776 7.22156776 7.22156776 7.22156776 7.22156776 7.22156776 7.22156776 7.22156776 7.22156776 7.22156776 7.22156776 7.22156776 7.22156776 7.22156776 7.22156776 7.22156776 7.22156776 7.22156776 7.22156776 7.22156776 7.22156776 7.22156776 7.22156776 7.22156776 7.22156776 7.22156776 7.22156776 7.22156776 7.22156776 7.22156776 7.22156776 7.22156776 7.22156776 7.22156776 7.22156776 7.22156776 7.22156776 7.22156776 7.22156776 7.22156776 7.22156776 7.22156776 7.22156776 7.22156776 7.22156776 7.22156776 7.22156776 7.22156776 7.22156776 7.22156776 7.22156776 7.22156776 7.22156776 7.22156776 7.22156776 7.22156776 7.22156776 7.22156776 7.22156776 7.22156776 7.22156776 7.22156776 7.22156776 7.22156776 7.22156776 7.22156776 7.22156776 7.22156776 7.22156776 7.22156776 7.22156776 7.22156776 7.22156776 7.22156776 7.22156776 7.22156776 7.22156776 7.22156776 7.22156776 7.22156776 7.22156776 7.22156776 7.22156776 7.22156776 7.22156776 7.22156776 7.22156776 7.22156776 7.22156776 7.22156776 7.22156776 7.22156776 7.22156776 7.22156776 7.22156776 7.22156776 7.22156776 7.22156776 7.22156776 7.22156776 7.22156776 7.22156776 7.22156776 7.22156776 7.22156776 7.22156776 7.22156776 7.22156776 7.22156776 7.22156776 7.22156776 7.22156776 7.22156776 7.22156776 7.22156776 7.22156776 7.22156776 7.22156776 7.22156776 7.22156776 7.22156776 7.22156776 7.22156776 7.22156776 7.22156776 7.22156776 7.22156776 7.22156776 7.22156776 7.22156776 7.22156776 7.22156776 7.22156776 7.22156776 7.22156776 7.22156776 7.22156776 7.22156776 7.22156776 7.22156776 7.22156776 7.22156776 7.22156776 7.22156776 7.22156776 7.22156776 7.22156776 7.22156776 7.22156776 7.22156776 7.22156776 7.22156776 7.22156776 7.22156776 7.22156776 7.22156776 7.22156776 7.22156776 7.22156776 7.22156776 7.22156776 7.22156776 7.22156776 7.22156776 7.22156776 7.22156776 7.22156776 7.22156776 7.22156776 7.22156776 7.22156776 7.22156776 7.22156776 7.22156776 7.22156776 7.22156776 7.22156776 7.22156776 7.22156776 7.22156776 7.22156776 7.22156776 7.22156776 7.22156776 7.22156776 7.22156776 7.22156776 7.22156776 7.22156776 7.22156776 7.22156776 7.22156776 7.22156776 7.22156776 7.22156776 7.22156776 7.22156776 7.22156776 7.22156776 7.22156776 7.22156776 7.22156776 7.22156776 7.22156776 7.22156776 7.22156776 7.22156776 7.22156776 7.22156776 7.22156776 7.22156776 7.22156776 7.22156776 7.22156776 7.22156776 7.22156776 7.22156776 7.22156776 7.22156776 7.22156776 7.22156776 7.22156776 7.22156776 7.22156776 7.22156776 7.22156776 7.22156776 7.22156776 7.22156776 7.22156776 7.22156776 7.22156776 7.22156776 7.22156776 7.22156776 7.22156776 7.22156776 7.22156776 7.22156776 7.22156776 7.22156776 7.22156776 7.22156776 7.22156776 7.22156776 7.22156776 7.22156776 7.22156776 7.22156776 7.22156776 7.22156776 7.22156776 7.22156776 7.22156776 7.22156776 7.22156776 7.22156776 7.22156776 7.22156776 7.22156776 7.22156776 7.22156776 7.22156776 7.22156776 7.22156776 7.22156776 7.22156776 7.22156776 7.22156776 7.22156776 7.22156776 7.22156776 7.22156776 7.22156776 7.22156776 7.22156776 7.22156776 7.22156776 7.22156776 7.22156776 7.22156776 7.22156776 7.22156776 7.22058027 7.22004690 7.21985146 7.21985146 7.22004690 7.22058027 7.22156776 7.22156776 7.22156776 7.22156776 7.22156776 7.22156776 7.22156776 7.22156776 7.22156776 7.22156776 7.22156776 7.22156776 7.22156776 7.22156776 7.22156776 7.22156776 7.22156776 7.22156776 7.22156776 7.22156776 7.22156776 7.22156776 7.22156776 7.22156776 7.22156776 7.22156776 7.22156776 7.22156776 7.22156776 7.22052450 7.21974656 7.21927969 7.21897265 7.21869567 7.21823559 7.21786155 7.21768135 7.21768135 7.21786155 7.21823559 7.21869567 7.21897265 7.21927969 7.21974656 7.22052450 7.22156776 7.22156776 7.22156776 7.22156776 7.22156776 7.22156776 7.22156776 7.22156776 7.22156776 7.22156776 7.22156776 7.22156776 7.22156776 7.22156776 7.22156776 7.22156776 7.22156776 7.22156776 7.22156776 7.22156776 7.22156776 7.22156776 7.22001512 7.21914129 7.21826503 7.21747366 7.21688084 7.21644962 7.21610512 7.21577880 7.21552195 7.21538794 7.21538794 7.21552195 7.21577880 7.21610512 7.21644962 7.21688084 7.21747366 7.21826503 7.21914129 7.22001512 7.22156776 7.22156776 7.22156776 7.22156776 7.22156776 7.22156776 7.22156776 7.22156776 7.22156776 7.22156776 7.22156776 7.22156776 7.22156776 7.22156776 7.22156776 7.22156776 7.22156776 7.22156776 7.22011696 7.21905732 7.21780225 7.21676949 7.21588794 7.21514712 7.21457532 7.21415339 7.21383755 7.21359095 7.21341459 7.21332329 7.21332329 7.21341459 7.21359095 7.21383755 7.21415339 7.21457532 7.21514712 7.21588794 7.21676949 7.21780225 7.21905732 7.22011696 7.22156776 7.22156776 7.22156776 7.22156776 7.22156776 7.22156776 7.22156776 7.22156776 7.22156776 7.22156776 7.22156776 7.22156776 7.22156776 7.22156776 7.22156776 7.21972659 7.21813699 7.21677210 7.21553169 7.21450382 7.21368331 7.21304947 7.21258650 7.21226407 7.21204316 7.21189103 7.21179220 7.21174313 7.21174313 7.21179220 7.21189103 7.21204316 7.21226407 7.21258650 7.21304947 7.21368331 7.21450382 7.21553169 7.21677210 7.21813699 7.21972659 7.22156776 7.22156776 7.22156776 7.22156776 7.22156776 7.22156776 7.22156776 7.22156776 7.22156776 7.22156776 7.22156776 7.22156776 7.22067238 7.21936220 7.21765099 7.21602173 7.21460057 7.21341496 7.21249210 7.21181898 7.21136024 7.21107392 7.21091375 7.21083465 7.21080016 7.21078691 7.21078279 7.21078279 7.21078691 7.21080016 7.21083465 7.21091375 7.21107392 7.21136024 7.21181898 7.21249210 7.21341496 7.21460057 7.21602173 7.21765099 7.21936220 7.22067238 7.22156776 7.22156776 7.22156776 7.22156776 7.22156776 7.22156776 7.22156776 7.22156776 7.22156776 7.22156776 7.21939710 7.21749828 7.21566453 7.21401645 7.21264505 7.21158883 7.21084988 7.21039457 7.21016706 7.21010407 7.21014396 7.21023313 7.21033034 7.21040802 7.21045035 7.21045035 7.21040802 7.21033034 7.21023313 7.21014396 7.21010407 7.21016706 7.21039457 7.21084988 7.21158883 7.21264505 7.21401645 7.21566453 7.21749828 7.21939710 7.22156776 7.22156776 7.22156776 7.22156776 7.22156776 7.22156776 7.22156776 7.22156776 7.22156776 7.21984742 7.21779547 7.21575748 7.21386934 7.21225651 7.21100146 7.21013223 7.20962836 7.20943206 7.20946499 7.20964466 7.20989613 7.21015847 7.21038718 7.21055316 7.21063981 7.21063981 7.21055316 7.21038718 7.21015847 7.20989613 7.20964466 7.20946499 7.20943206 7.20962836 7.21013223 7.21100146 7.21225651 7.21386934 7.21575748 7.21779547 7.21984742 7.22156776 7.22156776 7.22156776 7.22156776 7.22156776 7.22156776 7.22156776 7.22034543 7.21848968 7.21636210 7.21425246 7.21235919 7.21082237 7.20971948 7.20906315 7.20881017 7.20887856 7.20916843 7.20958077 7.21003020 7.21045089 7.21079719 7.21104065 7.21116570 7.21116570 7.21104065 7.21079719 7.21045089 7.21003020 7.20958077 7.20916843 7.20887856 7.20881017 7.20906315 7.20971948 7.21082237 7.21235919 7.21425246 7.21636210 7.21848968 7.22034543 7.22156776 7.22156776 7.22156776 7.22156776 7.22156776 7.22156776 7.21965423 7.21750309 7.21523931 7.21307346 7.21119776 7.20975118 7.20880262 7.20834852 7.20832468 7.20862777 7.20913978 7.20974875 7.21036199 7.21091115 7.21135112 7.21165536 7.21181024 7.21181024 7.21165536 7.21135112 7.21091115 7.21036199 7.20974875 7.20913978 7.20862777 7.20832468 7.20834852 7.20880262 7.20975118 7.21119776 7.21307346 7.21523931 7.21750309 7.21965423 7.22156776 7.22156776 7.22156776 7.22156776 7.22156776 7.22156776 7.21921104 7.21684255 7.21447150 7.21226879 7.21041629 7.20904781 7.20822357 7.20792658 7.20807647 7.20855399 7.20922813 7.20997817 7.21070701 7.21134540 7.21184949 7.21219483 7.21236970 7.21236970 7.21219483 7.21184949 7.21134540 7.21070701 7.20997817 7.20922813 7.20855399 7.20807647 7.20792658 7.20822357 7.20904781 7.21041629 7.21226879 7.21447150 7.21684255 7.21921104 7.22156776 7.22156776 7.22156776 7.22156776 7.22156776 7.22086702 7.21885172 7.21648239 7.21407695 7.21186094 7.21002472 7.20870131 7.20794617 7.20773485 7.20797815 7.20854837 7.20930772 7.21013111 7.21091941 7.21160322 7.21213963 7.21250552 7.21269033 7.21269033 7.21250552 7.21213963 7.21160322 7.21091941 7.21013111 7.20930772 7.20854837 7.20797815 7.20773485 7.20794617 7.20870131 7.21002472 7.21186094 7.21407695 7.21648239 7.21885172 7.22086702 7.22156776 7.22156776 7.22156776 7.22156776 7.22086702 7.21885172 7.21648239 7.21407695 7.21186094 7.21002472 7.20870131 7.20794617 7.20773485 7.20797815 7.20854837 7.20930772 7.21013111 7.21091941 7.21160322 7.21213963 7.21250552 7.21269033 7.21269033 7.21250552 7.21213963 7.21160322 7.21091941 7.21013111 7.20930772 7.20854837 7.20797815 7.20773485 7.20794617 7.20870131 7.21002472 7.21186094 7.21407695 7.21648239 7.21885172 7.22086702 7.22156776 7.22156776 7.22156776 7.22156776 7.22156776 7.21921104 7.21684255 7.21447150 7.21226879 7.21041629 7.20904781 7.20822357 7.20792658 7.20807647 7.20855399 7.20922813 7.20997817 7.21070701 7.21134540 7.21184949 7.21219483 7.21236970 7.21236970 7.21219483 7.21184949 7.21134540 7.21070701 7.20997817 7.20922813 7.20855399 7.20807647 7.20792658 7.20822357 7.20904781 7.21041629 7.21226879 7.21447150 7.21684255 7.21921104 7.22156776 7.22156776 7.22156776 7.22156776 7.22156776 7.22156776 7.21965423 7.21750309 7.21523931 7.21307346 7.21119776 7.20975118 7.20880262 7.20834852 7.20832468 7.20862777 7.20913978 7.20974875 7.21036199 7.21091115 7.21135112 7.21165536 7.21181024 7.21181024 7.21165536 7.21135112 7.21091115 7.21036199 7.20974875 7.20913978 7.20862777 7.20832468 7.20834852 7.20880262 7.20975118 7.21119776 7.21307346 7.21523931 7.21750309 7.21965423 7.22156776 7.22156776 7.22156776 7.22156776 7.22156776 7.22156776 7.22034543 7.21848968 7.21636210 7.21425246 7.21235919 7.21082237 7.20971948 7.20906315 7.20881017 7.20887856 7.20916843 7.20958077 7.21003020 7.21045089 7.21079719 7.21104065 7.21116570 7.21116570 7.21104065 7.21079719 7.21045089 7.21003020 7.20958077 7.20916843 7.20887856 7.20881017 7.20906315 7.20971948 7.21082237 7.21235919 7.21425246 7.21636210 7.21848968 7.22034543 7.22156776 7.22156776 7.22156776 7.22156776 7.22156776 7.22156776 7.22156776 7.21984742 7.21779547 7.21575748 7.21386934 7.21225651 7.21100146 7.21013223 7.20962836 7.20943206 7.20946499 7.20964466 7.20989613 7.21015847 7.21038718 7.21055316 7.21063981 7.21063981 7.21055316 7.21038718 7.21015847 7.20989613 7.20964466 7.20946499 7.20943206 7.20962836 7.21013223 7.21100146 7.21225651 7.21386934 7.21575748 7.21779547 7.21984742 7.22156776 7.22156776 7.22156776 7.22156776 7.22156776 7.22156776 7.22156776 7.22156776 7.22156776 7.21939710 7.21749828 7.21566453 7.21401645 7.21264505 7.21158883 7.21084988 7.21039457 7.21016706 7.21010407 7.21014396 7.21023313 7.21033034 7.21040802 7.21045035 7.21045035 7.21040802 7.21033034 7.21023313 7.21014396 7.21010407 7.21016706 7.21039457 7.21084988 7.21158883 7.21264505 7.21401645 7.21566453 7.21749828 7.21939710 7.22156776 7.22156776 7.22156776 7.22156776 7.22156776 7.22156776 7.22156776 7.22156776 7.22156776 7.22156776 7.22067238 7.21936220 7.21765099 7.21602173 7.21460057 7.21341496 7.21249210 7.21181898 7.21136024 7.21107392 7.21091375 7.21083465 7.21080016 7.21078691 7.21078279 7.21078279 7.21078691 7.21080016 7.21083465 7.21091375 7.21107392 7.21136024 7.21181898 7.21249210 7.21341496 7.21460057 7.21602173 7.21765099 7.21936220 7.22067238 7.22156776 7.22156776 7.22156776 7.22156776 7.22156776 7.22156776 7.22156776 7.22156776 7.22156776 7.22156776 7.22156776 7.22156776 7.21972659 7.21813699 7.21677210 7.21553169 7.21450382 7.21368331 7.21304947 7.21258650 7.21226407 7.21204316 7.21189103 7.21179220 7.21174313 7.21174313 7.21179220 7.21189103 7.21204316 7.21226407 7.21258650 7.21304947 7.21368331 7.21450382 7.21553169 7.21677210 7.21813699 7.21972659 7.22156776 7.22156776 7.22156776 7.22156776 7.22156776 7.22156776 7.22156776 7.22156776 7.22156776 7.22156776 7.22156776 7.22156776 7.22156776 7.22156776 7.22156776 7.22011696 7.21905732 7.21780225 7.21676949 7.21588794 7.21514712 7.21457532 7.21415339 7.21383755 7.21359095 7.21341459 7.21332329 7.21332329 7.21341459 7.21359095 7.21383755 7.21415339 7.21457532 7.21514712 7.21588794 7.21676949 7.21780225 7.21905732 7.22011696 7.22156776 7.22156776 7.22156776 7.22156776 7.22156776 7.22156776 7.22156776 7.22156776 7.22156776 7.22156776 7.22156776 7.22156776 7.22156776 7.22156776 7.22156776 7.22156776 7.22156776 7.22156776 7.22001512 7.21914129 7.21826503 7.21747366 7.21688084 7.21644962 7.21610512 7.21577880 7.21552195 7.21538794 7.21538794 7.21552195 7.21577880 7.21610512 7.21644962 7.21688084 7.21747366 7.21826503 7.21914129 7.22001512 7.22156776 7.22156776 7.22156776 7.22156776 7.22156776 7.22156776 7.22156776 7.22156776 7.22156776 7.22156776 7.22156776 7.22156776 7.22156776 7.22156776 7.22156776 7.22156776 7.22156776 7.22156776 7.22156776 7.22156776 7.22156776 7.22156776 7.22052450 7.21974656 7.21927969 7.21897265 7.21869567 7.21823559 7.21786155 7.21768135 7.21768135 7.21786155 7.21823559 7.21869567 7.21897265 7.21927969 7.21974656 7.22052450 7.22156776 7.22156776 7.22156776 7.22156776 7.22156776 7.22156776 7.22156776 7.22156776 7.22156776 7.22156776 7.22156776 7.22156776 7.22156776 7.22156776 7.22156776 7.22156776 7.22156776 7.22156776 7.22156776 7.22156776 7.22156776 7.22156776 7.22156776 7.22156776 7.22156776 7.22156776 7.22156776 7.22156776 7.22156776 7.22058027 7.22004690 7.21985146 7.21985146 7.22004690 7.22058027 7.22156776 7.22156776 7.22156776 7.22156776 7.22156776 7.22156776 7.22156776 7.22156776 7.22156776 7.22156776 7.22156776 7.22156776 7.22156776 7.22156776 7.22156776 7.22156776 7.22156776 7.22156776 7.22156776 7.22156776 7.22156776 7.22156776 7.22156776 7.22156776 7.22156776 7.22156776 7.22156776 7.22156776 7.22156776 7.22156776 7.22156776 7.22156776 7.22156776 7.22156776 7.22156776 7.22156776 7.22156776 7.22156776 7.22156776 7.22156776 7.22156776 7.22156776 7.22156776 7.22156776 7.22156776 7.22156776 7.22156776 7.22156776 7.22156776 7.22156776 7.22156776 7.22156776 7.22156776 7.22156776 7.22156776 7.22156776 7.22156776 7.22156776 7.22156776 7.22156776 7.22156776 7.22156776 7.22156776 7.22156776 7.22156776 7.22156776 7.22156776 7.22156776 7.22156776 7.22156776 7.22156776 7.22156776 7.22156776 7.22156776 7.22156776 7.22156776 7.22156776 7.22156776 7.22156776 7.22156776 7.22156776 7.22156776 7.22156776 7.22156776 7.22156776 7.22156776 7.22156776 7.22156776 7.22156776 7.22156776 7.22156776 7.22156776 7.22156776 7.22156776 7.22156776 7.22156776 7.22156776 7.22156776 7.22156776 7.22156776 7.22156776 7.22156776 7.22156776 7.22156776 7.22156776 7.22156776 7.22156776 7.22156776 7.22156776 7.22156776 7.22156776 7.22156776 7.22156776 7.22156776 7.22156776 7.22156776 7.22156776 7.22156776 7.22156776 7.22156776 7.22156776 7.22156776 7.22156776 7.22156776 7.22156776 7.22156776 7.22156776 7.22156776 7.22156776 7.22156776 7.22156776 7.22156776 7.22156776 7.22156776 7.22156776 7.22156776 7.22156776 7.22156776 7.22156776 7.22156776 7.22156776 7.22156776 7.22156776 7.22156776 7.22156776 7.22156776 7.22156776 7.22156776 7.22156776 7.22156776 7.22156776 7.22156776 7.22156776 7.22156776 7.22156776 7.22156776 7.22156776 7.22156776 7.22156776 7.22156776 7.22156776 7.22156776 7.22156776 7.22156776 7.22156776 7.22156776 7.22156776 7.22156776 7.22156776 7.22156776 7.22156776 7.22156776 7.22156776 7.22156776 7.22156776 7.22156776 7.22156776 7.22156776 7.22156776 7.22156776 7.22156776 7.22156776 7.22156776 7.22156776 7.22156776 7.22156776 7.22156776 7.22156776 7.22156776 7.22156776 7.22156776 7.22156776 7.22156776 7.22156776 7.22156776 7.22156776 7.22156776 7.22156776 7.22156776 7.22156776 7.22156776 7.22156776 7.22156776 7.22156776 7.22156776 7.22156776 7.22156776 7.22156776 7.22156776 7.22156776 7.22156776 7.22156776 7.22156776 7.22156776 7.22156776 7.22156776 7.22156776 7.22156776 7.22156776 7.22156776 7.22156776 7.22156776 7.22156776 7.22156776 7.22156776 7.22156776 7.22156776 7.22156776 7.22156776 7.22156776 7.22156776 7.22156776 7.22156776 7.22156776 7.22156776 7.22156776 7.22156776 7.22156776 7.22156776 7.22156776 7.22156776 7.22156776 7.22156776 7.22156776 7.22156776 7.22156776 7.22156776 7.22156776 7.22156776 7.22156776 7.22156776 7.22156776 7.22156776 7.22156776 7.22156776 7.22156776 7.22156776 7.22156776 7.22156776 7.22156776 7.22156776 7.22156776 7.22156776 7.22156776 7.22156776 7.22156776 7.22156776 7.22156776 7.22156776 7.22156776 7.22156776 7.22156776 7.22156776 7.22156776 7.22156776 7.22156776 7.22156776 7.22156776 7.22156776 7.22156776 7.22156776 7.22156776 7.22156776 7.22156776 7.22156776 7.22156776 7.22156776 7.22156776 7.22156776 7.22156776 7.22156776 7.22156776 7.22156776 7.22156776 7.22156776 7.22156776 7.22156776 7.22156776 7.22156776 7.22156776 7.22156776 7.22156776 7.22156776 7.22156776 7.22156776 7.22156776 7.22156776 7.22156776 7.22156776 7.22156776 7.22156776 7.22156776 7.22156776 7.22156776 7.22156776 7.22156776 7.22156776 7.22156776 7.22156776 7.22156776 7.22156776 7.22156776 7.22156776 7.22156776 7.22156776 7.22156776 7.22156776 7.22156776 7.22156776 7.22156776 7.22156776 7.22156776 7.22156776 7.22156776 7.22156776 7.22156776 7.22156776 