# vtk DataFile Version 3.0
VTK - Matlab export
ASCII
DATASET STRUCTURED_POINTS
DIMENSIONS 40 40 1
SPACING 1 1 1
ORIGIN 0 0 0
POINT_DATA 1600
SCALARS Proofstrength float 1
LOOKUP_TABLE default
142.25514280 142.25514280 142.25514280 142.25514280 142.25514280 142.25514280 142.25514280 142.25514280 142.25514280 142.25514280 142.25514280 142.25514280 142.25514280 142.25514280 142.25514280 142.25514280 142.25514280 142.25514280 142.25514280 142.25514280 142.25514280 142.25514280 142.25514280 142.25514280 142.25514280 142.25514280 142.25514280 142.25514280 142.25514280 142.25514280 142.25514280 142.25514280 142.25514280 142.25514280 142.25514280 142.25514280 142.25514280 142.25514280 142.25514280 142.25514280 142.25514280 142.25514280 142.25514280 142.25514280 142.25514280 142.25514280 142.25514280 142.25514280 142.25514280 142.25514280 142.25514280 142.25514280 142.25514280 142.25514280 142.25514280 142.25514280 142.25514280 142.25514280 142.25514280 142.25514280 142.25514280 142.25514280 142.25514280 142.25514280 142.25514280 142.25514280 142.25514280 142.25514280 142.25514280 142.25514280 142.25514280 142.25514280 142.25514280 142.25514280 142.25514280 142.25514280 142.25514280 142.25514280 142.25514280 142.25514280 142.25514280 142.25514280 142.25514280 142.25514280 142.25514280 142.25514280 142.25514280 142.25514280 142.25514280 142.25514280 142.25514280 142.25514280 142.25514280 142.25514280 142.25514280 142.25514280 142.25514280 142.25514280 142.25514280 142.25514280 142.25514280 142.25514280 142.25514280 142.25514280 142.25514280 142.25514280 142.25514280 142.25514280 142.25514280 142.25514280 142.25514280 142.25514280 142.25514280 142.25514280 142.25514280 142.25514280 142.25514280 142.25514280 142.25514280 142.25514280 142.25514280 142.25514280 142.25514280 142.25514280 142.25514280 142.25514280 142.25514280 142.25514280 142.25514280 142.25514280 142.25514280 142.25514280 142.25514280 142.25514280 142.25514280 142.25514280 142.25514280 142.25514280 142.25514280 142.25514280 142.25514280 142.25514280 142.25514280 142.25514280 142.25514280 142.25514280 142.25514280 142.25514280 142.25514280 142.25514280 142.25514280 142.25514280 142.25514280 142.25514280 142.25514280 142.25514280 142.25514280 142.25514280 142.25514280 142.25514280 142.25514280 142.25514280 142.25514280 142.25514280 142.25514280 142.25514280 142.25514280 142.25514280 142.25514280 142.25514280 142.25514280 142.25514280 142.25514280 142.25514280 142.25514280 142.25514280 142.25514280 142.25514280 142.25514280 142.25514280 142.25514280 142.25514280 142.25514280 142.25514280 142.25514280 142.25514280 142.25514280 142.25514280 142.25514280 142.25514280 142.25514280 142.25514280 142.25514280 142.25514280 142.25514280 142.25514280 142.25514280 142.25514280 142.25514280 142.25514280 142.25514280 142.25514280 142.25514280 142.25514280 142.25514280 142.25514280 142.25514280 142.25514280 142.25514280 142.25514280 142.25514280 142.25514280 142.25514280 142.25514280 142.25514280 142.25514280 142.25514280 142.25514280 142.25514280 142.25514280 142.25514280 142.25514280 142.25514280 142.25514280 142.25514280 142.25514280 142.25514280 142.25514280 142.25514280 142.25514280 142.25514280 142.25514280 142.25514280 142.25514280 142.25514280 142.25514280 142.25514280 142.25514280 142.25514280 142.25514280 142.25514280 142.25514280 142.25514280 142.25514280 142.25514280 142.25514280 142.25514280 142.25514280 142.25514280 142.25514280 142.25514280 142.25514280 142.25514280 142.25514280 142.25514280 142.25514280 142.25514280 142.25514280 142.25514280 142.25514280 142.25514280 142.25514280 142.25514280 142.25514280 142.25514280 142.25514280 142.25514280 142.25514280 142.25514280 142.25514280 142.25514280 142.25514280 142.25514280 142.25514280 142.25514280 142.25514280 142.25514280 142.25514280 142.25514280 142.25514280 142.25514280 142.25514280 142.25514280 142.25514280 142.25514280 142.25514280 142.25514280 142.25514280 142.25514280 142.25514280 142.25514280 142.25514280 142.25514280 142.25514280 142.25514280 142.25514280 142.25514280 142.25514280 142.25514280 142.25514280 142.25514280 142.25514280 142.25514280 142.25514280 142.25514280 142.25514280 142.25514280 142.25514280 142.25514280 142.25514280 142.25514280 142.25514280 142.25514280 142.25514280 142.25514280 142.25514280 142.25514280 142.25514280 142.25514280 142.25514280 142.25514280 142.25514280 142.25514280 142.25514280 142.25514280 142.25514280 142.25514280 142.25514280 142.25514280 142.25514280 142.25514280 142.25514280 142.25514280 142.25514280 142.25514280 142.25514280 142.25514280 142.25867218 142.26064016 142.26137873 142.26137873 142.26064016 142.25867218 142.25514280 142.25514280 142.25514280 142.25514280 142.25514280 142.25514280 142.25514280 142.25514280 142.25514280 142.25514280 142.25514280 142.25514280 142.25514280 142.25514280 142.25514280 142.25514280 142.25514280 142.25514280 142.25514280 142.25514280 142.25514280 142.25514280 142.25514280 142.25514280 142.25514280 142.25514280 142.25514280 142.25514280 142.25514280 142.25886871 142.26163771 142.26323218 142.26421162 142.26509382 142.26669911 142.26805287 142.26871673 142.26871673 142.26805287 142.26669911 142.26509382 142.26421162 142.26323218 142.26163771 142.25886871 142.25514280 142.25514280 142.25514280 142.25514280 142.25514280 142.25514280 142.25514280 142.25514280 142.25514280 142.25514280 142.25514280 142.25514280 142.25514280 142.25514280 142.25514280 142.25514280 142.25514280 142.25514280 142.25514280 142.25514280 142.25514280 142.25514280 142.26066250 142.26368480 142.26664047 142.26922210 142.27101452 142.27219202 142.27309517 142.27403092 142.27482105 142.27524571 142.27524571 142.27482105 142.27403092 142.27309517 142.27219202 142.27101452 142.26922210 142.26664047 142.26368480 142.26066250 142.25514280 142.25514280 142.25514280 142.25514280 142.25514280 142.25514280 142.25514280 142.25514280 142.25514280 142.25514280 142.25514280 142.25514280 142.25514280 142.25514280 142.25514280 142.25514280 142.25514280 142.25514280 142.26030602 142.26393979 142.26813187 142.27133866 142.27385352 142.27577461 142.27705259 142.27782349 142.27831844 142.27872410 142.27905089 142.27923220 142.27923220 142.27905089 142.27872410 142.27831844 142.27782349 142.27705259 142.27577461 142.27385352 142.27133866 142.26813187 142.26393979 142.26030602 142.25514280 142.25514280 142.25514280 142.25514280 142.25514280 142.25514280 142.25514280 142.25514280 142.25514280 142.25514280 142.25514280 142.25514280 142.25514280 142.25514280 142.25514280 142.26167910 142.26707679 142.27133137 142.27483187 142.27732351 142.27893639 142.27986293 142.28025416 142.28029346 142.28017616 142.28004952 142.27997038 142.27993621 142.27993621 142.27997038 142.28004952 142.28017616 142.28029346 142.28025416 142.27986293 142.27893639 142.27732351 142.27483187 142.27133137 142.26707679 142.26167910 142.25514280 142.25514280 142.25514280 142.25514280 142.25514280 142.25514280 142.25514280 142.25514280 142.25514280 142.25514280 142.25514280 142.25514280 142.25845959 142.26309518 142.26879538 142.27367179 142.27727438 142.27964554 142.28088267 142.28123269 142.28098165 142.28037718 142.27962869 142.27890422 142.27831647 142.27791778 142.27771942 142.27771942 142.27791778 142.27831647 142.27890422 142.27962869 142.28037718 142.28098165 142.28123269 142.28088267 142.27964554 142.27727438 142.27367179 142.26879538 142.26309518 142.25845959 142.25514280 142.25514280 142.25514280 142.25514280 142.25514280 142.25514280 142.25514280 142.25514280 142.25514280 142.25514280 142.26315404 142.26960093 142.27502533 142.27896589 142.28127458 142.28212972 142.28186177 142.28086206 142.27948935 142.27801817 142.27663818 142.27546944 142.27457656 142.27398283 142.27368846 142.27368846 142.27398283 142.27457656 142.27546944 142.27663818 142.27801817 142.27948935 142.28086206 142.28186177 142.28212972 142.28127458 142.27896589 142.27502533 142.26960093 142.26315404 142.25514280 142.25514280 142.25514280 142.25514280 142.25514280 142.25514280 142.25514280 142.25514280 142.25514280 142.26171296 142.26900395 142.27530049 142.27991532 142.28252576 142.28323497 142.28245877 142.28073183 142.27855667 142.27631711 142.27425776 142.27250848 142.27112193 142.27010571 142.26944542 142.26912163 142.26912163 142.26944542 142.27010571 142.27112193 142.27250848 142.27425776 142.27631711 142.27855667 142.28073183 142.28245877 142.28323497 142.28252576 142.27991532 142.27530049 142.26900395 142.26171296 142.25514280 142.25514280 142.25514280 142.25514280 142.25514280 142.25514280 142.25514280 142.25998944 142.26694781 142.27405806 142.27977967 142.28329052 142.28441969 142.28352855 142.28127464 142.27835427 142.27532768 142.27255404 142.27020952 142.26834363 142.26693677 142.26594222 142.26531110 142.26500562 142.26500562 142.26531110 142.26594222 142.26693677 142.26834363 142.27020952 142.27255404 142.27532768 142.27835427 142.28127464 142.28352855 142.28441969 142.28329052 142.27977967 142.27405806 142.26694781 142.25998944 142.25514280 142.25514280 142.25514280 142.25514280 142.25514280 142.25514280 142.26274210 142.27067360 142.27779501 142.28288929 142.28529711 142.28507117 142.28282616 142.27942381 142.27566806 142.27212914 142.26911091 142.26670836 142.26489214 142.26358030 142.26268356 142.26212783 142.26186256 142.26186256 142.26212783 142.26268356 142.26358030 142.26489214 142.26670836 142.26911091 142.27212914 142.27566806 142.27942381 142.28282616 142.28507117 142.28529711 142.28288929 142.27779501 142.27067360 142.26274210 142.25514280 142.25514280 142.25514280 142.25514280 142.25514280 142.25514280 142.26449120 142.27309525 142.28019559 142.28476013 142.28629643 142.28505795 142.28185858 142.27770248 142.27345201 142.26966197 142.26657833 142.26422702 142.26251850 142.26132709 142.26053606 142.26005633 142.25983034 142.25983034 142.26005633 142.26053606 142.26132709 142.26251850 142.26422702 142.26657833 142.26966197 142.27345201 142.27770248 142.28185858 142.28505795 142.28629643 142.28476013 142.28019559 142.27309525 142.26449120 142.25514280 142.25514280 142.25514280 142.25514280 142.25514280 142.25798251 142.26593180 142.27440339 142.28137835 142.28562095 142.28667611 142.28490062 142.28121428 142.27669248 142.27222097 142.26833890 142.26525636 142.26296036 142.26132936 142.26021566 142.25948953 142.25905525 142.25885246 142.25885246 142.25905525 142.25948953 142.26021566 142.26132936 142.26296036 142.26525636 142.26833890 142.27222097 142.27669248 142.28121428 142.28490062 142.28667611 142.28562095 142.28137835 142.27440339 142.26593180 142.25798251 142.25514280 142.25514280 142.25514280 142.25514280 142.25798251 142.26593180 142.27440339 142.28137835 142.28562095 142.28667611 142.28490062 142.28121428 142.27669248 142.27222097 142.26833890 142.26525636 142.26296036 142.26132936 142.26021566 142.25948953 142.25905525 142.25885246 142.25885246 142.25905525 142.25948953 142.26021566 142.26132936 142.26296036 142.26525636 142.26833890 142.27222097 142.27669248 142.28121428 142.28490062 142.28667611 142.28562095 142.28137835 142.27440339 142.26593180 142.25798251 142.25514280 142.25514280 142.25514280 142.25514280 142.25514280 142.26449120 142.27309525 142.28019559 142.28476013 142.28629643 142.28505795 142.28185858 142.27770248 142.27345201 142.26966197 142.26657833 142.26422702 142.26251850 142.26132709 142.26053606 142.26005633 142.25983034 142.25983034 142.26005633 142.26053606 142.26132709 142.26251850 142.26422702 142.26657833 142.26966197 142.27345201 142.27770248 142.28185858 142.28505795 142.28629643 142.28476013 142.28019559 142.27309525 142.26449120 142.25514280 142.25514280 142.25514280 142.25514280 142.25514280 142.25514280 142.26274210 142.27067360 142.27779501 142.28288929 142.28529711 142.28507117 142.28282616 142.27942381 142.27566806 142.27212914 142.26911091 142.26670836 142.26489214 142.26358030 142.26268356 142.26212783 142.26186256 142.26186256 142.26212783 142.26268356 142.26358030 142.26489214 142.26670836 142.26911091 142.27212914 142.27566806 142.27942381 142.28282616 142.28507117 142.28529711 142.28288929 142.27779501 142.27067360 142.26274210 142.25514280 142.25514280 142.25514280 142.25514280 142.25514280 142.25514280 142.25998944 142.26694781 142.27405806 142.27977967 142.28329052 142.28441969 142.28352855 142.28127464 142.27835427 142.27532768 142.27255404 142.27020952 142.26834363 142.26693677 142.26594222 142.26531110 142.26500562 142.26500562 142.26531110 142.26594222 142.26693677 142.26834363 142.27020952 142.27255404 142.27532768 142.27835427 142.28127464 142.28352855 142.28441969 142.28329052 142.27977967 142.27405806 142.26694781 142.25998944 142.25514280 142.25514280 142.25514280 142.25514280 142.25514280 142.25514280 142.25514280 142.26171296 142.26900395 142.27530049 142.27991532 142.28252576 142.28323497 142.28245877 142.28073183 142.27855667 142.27631711 142.27425776 142.27250848 142.27112193 142.27010571 142.26944542 142.26912163 142.26912163 142.26944542 142.27010571 142.27112193 142.27250848 142.27425776 142.27631711 142.27855667 142.28073183 142.28245877 142.28323497 142.28252576 142.27991532 142.27530049 142.26900395 142.26171296 142.25514280 142.25514280 142.25514280 142.25514280 142.25514280 142.25514280 142.25514280 142.25514280 142.25514280 142.26315404 142.26960093 142.27502533 142.27896589 142.28127458 142.28212972 142.28186177 142.28086206 142.27948935 142.27801817 142.27663818 142.27546944 142.27457656 142.27398283 142.27368846 142.27368846 142.27398283 142.27457656 142.27546944 142.27663818 142.27801817 142.27948935 142.28086206 142.28186177 142.28212972 142.28127458 142.27896589 142.27502533 142.26960093 142.26315404 142.25514280 142.25514280 142.25514280 142.25514280 142.25514280 142.25514280 142.25514280 142.25514280 142.25514280 142.25514280 142.25845959 142.26309518 142.26879538 142.27367179 142.27727438 142.27964554 142.28088267 142.28123269 142.28098165 142.28037718 142.27962869 142.27890422 142.27831647 142.27791778 142.27771942 142.27771942 142.27791778 142.27831647 142.27890422 142.27962869 142.28037718 142.28098165 142.28123269 142.28088267 142.27964554 142.27727438 142.27367179 142.26879538 142.26309518 142.25845959 142.25514280 142.25514280 142.25514280 142.25514280 142.25514280 142.25514280 142.25514280 142.25514280 142.25514280 142.25514280 142.25514280 142.25514280 142.26167910 142.26707679 142.27133137 142.27483187 142.27732351 142.27893639 142.27986293 142.28025416 142.28029346 142.28017616 142.28004952 142.27997038 142.27993621 142.27993621 142.27997038 142.28004952 142.28017616 142.28029346 142.28025416 142.27986293 142.27893639 142.27732351 142.27483187 142.27133137 142.26707679 142.26167910 142.25514280 142.25514280 142.25514280 142.25514280 142.25514280 142.25514280 142.25514280 142.25514280 142.25514280 142.25514280 142.25514280 142.25514280 142.25514280 142.25514280 142.25514280 142.26030602 142.26393979 142.26813187 142.27133866 142.27385352 142.27577461 142.27705259 142.27782349 142.27831844 142.27872410 142.27905089 142.27923220 142.27923220 142.27905089 142.27872410 142.27831844 142.27782349 142.27705259 142.27577461 142.27385352 142.27133866 142.26813187 142.26393979 142.26030602 142.25514280 142.25514280 142.25514280 142.25514280 142.25514280 142.25514280 142.25514280 142.25514280 142.25514280 142.25514280 142.25514280 142.25514280 142.25514280 142.25514280 142.25514280 142.25514280 142.25514280 142.25514280 142.26066250 142.26368480 142.26664047 142.26922210 142.27101452 142.27219202 142.27309517 142.27403092 142.27482105 142.27524571 142.27524571 142.27482105 142.27403092 142.27309517 142.27219202 142.27101452 142.26922210 142.26664047 142.26368480 142.26066250 142.25514280 142.25514280 142.25514280 142.25514280 142.25514280 142.25514280 142.25514280 142.25514280 142.25514280 142.25514280 142.25514280 142.25514280 142.25514280 142.25514280 142.25514280 142.25514280 142.25514280 142.25514280 142.25514280 142.25514280 142.25514280 142.25514280 142.25886871 142.26163771 142.26323218 142.26421162 142.26509382 142.26669911 142.26805287 142.26871673 142.26871673 142.26805287 142.26669911 142.26509382 142.26421162 142.26323218 142.26163771 142.25886871 142.25514280 142.25514280 142.25514280 142.25514280 142.25514280 142.25514280 142.25514280 142.25514280 142.25514280 142.25514280 142.25514280 142.25514280 142.25514280 142.25514280 142.25514280 142.25514280 142.25514280 142.25514280 142.25514280 142.25514280 142.25514280 142.25514280 142.25514280 142.25514280 142.25514280 142.25514280 142.25514280 142.25514280 142.25514280 142.25867218 142.26064016 142.26137873 142.26137873 142.26064016 142.25867218 142.25514280 142.25514280 142.25514280 142.25514280 142.25514280 142.25514280 142.25514280 142.25514280 142.25514280 142.25514280 142.25514280 142.25514280 142.25514280 142.25514280 142.25514280 142.25514280 142.25514280 142.25514280 142.25514280 142.25514280 142.25514280 142.25514280 142.25514280 142.25514280 142.25514280 142.25514280 142.25514280 142.25514280 142.25514280 142.25514280 142.25514280 142.25514280 142.25514280 142.25514280 142.25514280 142.25514280 142.25514280 142.25514280 142.25514280 142.25514280 142.25514280 142.25514280 142.25514280 142.25514280 142.25514280 142.25514280 142.25514280 142.25514280 142.25514280 142.25514280 142.25514280 142.25514280 142.25514280 142.25514280 142.25514280 142.25514280 142.25514280 142.25514280 142.25514280 142.25514280 142.25514280 142.25514280 142.25514280 142.25514280 142.25514280 142.25514280 142.25514280 142.25514280 142.25514280 142.25514280 142.25514280 142.25514280 142.25514280 142.25514280 142.25514280 142.25514280 142.25514280 142.25514280 142.25514280 142.25514280 142.25514280 142.25514280 142.25514280 142.25514280 142.25514280 142.25514280 142.25514280 142.25514280 142.25514280 142.25514280 142.25514280 142.25514280 142.25514280 142.25514280 142.25514280 142.25514280 142.25514280 142.25514280 142.25514280 142.25514280 142.25514280 142.25514280 142.25514280 142.25514280 142.25514280 142.25514280 142.25514280 142.25514280 142.25514280 142.25514280 142.25514280 142.25514280 142.25514280 142.25514280 142.25514280 142.25514280 142.25514280 142.25514280 142.25514280 142.25514280 142.25514280 142.25514280 142.25514280 142.25514280 142.25514280 142.25514280 142.25514280 142.25514280 142.25514280 142.25514280 142.25514280 142.25514280 142.25514280 142.25514280 142.25514280 142.25514280 142.25514280 142.25514280 142.25514280 142.25514280 142.25514280 142.25514280 142.25514280 142.25514280 142.25514280 142.25514280 142.25514280 142.25514280 142.25514280 142.25514280 142.25514280 142.25514280 142.25514280 142.25514280 142.25514280 142.25514280 142.25514280 142.25514280 142.25514280 142.25514280 142.25514280 142.25514280 142.25514280 142.25514280 142.25514280 142.25514280 142.25514280 142.25514280 142.25514280 142.25514280 142.25514280 142.25514280 142.25514280 142.25514280 142.25514280 142.25514280 142.25514280 142.25514280 142.25514280 142.25514280 142.25514280 142.25514280 142.25514280 142.25514280 142.25514280 142.25514280 142.25514280 142.25514280 142.25514280 142.25514280 142.25514280 142.25514280 142.25514280 142.25514280 142.25514280 142.25514280 142.25514280 142.25514280 142.25514280 142.25514280 142.25514280 142.25514280 142.25514280 142.25514280 142.25514280 142.25514280 142.25514280 142.25514280 142.25514280 142.25514280 142.25514280 142.25514280 142.25514280 142.25514280 142.25514280 142.25514280 142.25514280 142.25514280 142.25514280 142.25514280 142.25514280 142.25514280 142.25514280 142.25514280 142.25514280 142.25514280 142.25514280 142.25514280 142.25514280 142.25514280 142.25514280 142.25514280 142.25514280 142.25514280 142.25514280 142.25514280 142.25514280 142.25514280 142.25514280 142.25514280 142.25514280 142.25514280 142.25514280 142.25514280 142.25514280 142.25514280 142.25514280 142.25514280 142.25514280 142.25514280 142.25514280 142.25514280 142.25514280 142.25514280 142.25514280 142.25514280 142.25514280 142.25514280 142.25514280 142.25514280 142.25514280 142.25514280 142.25514280 142.25514280 142.25514280 142.25514280 142.25514280 142.25514280 142.25514280 142.25514280 142.25514280 142.25514280 142.25514280 142.25514280 142.25514280 142.25514280 142.25514280 142.25514280 142.25514280 142.25514280 142.25514280 142.25514280 142.25514280 142.25514280 142.25514280 142.25514280 142.25514280 142.25514280 142.25514280 142.25514280 142.25514280 142.25514280 142.25514280 142.25514280 142.25514280 142.25514280 142.25514280 142.25514280 142.25514280 142.25514280 142.25514280 142.25514280 142.25514280 142.25514280 142.25514280 142.25514280 142.25514280 142.25514280 142.25514280 142.25514280 142.25514280 142.25514280 142.25514280 142.25514280 142.25514280 142.25514280 142.25514280 142.25514280 142.25514280 142.25514280 142.25514280 142.25514280 142.25514280 142.25514280 142.25514280 142.25514280 142.25514280 142.25514280 142.25514280 142.25514280 142.25514280 142.25514280 142.25514280 142.25514280 142.25514280 142.25514280 142.25514280 