# vtk DataFile Version 3.0
VTK - Matlab export
ASCII
DATASET STRUCTURED_POINTS
DIMENSIONS 40 40 1
SPACING 1 1 1
ORIGIN 0 0 0
POINT_DATA 1600
SCALARS Temperature float 1
LOOKUP_TABLE default
300.00000000 300.00000000 300.00000000 300.00000000 300.00000000 300.00000000 300.00000000 300.00000000 300.00000000 300.00000000 300.00000000 300.00000000 300.00000000 300.00000000 300.00000000 300.00000000 300.00000000 300.00000000 300.00000000 300.00000000 300.00000000 300.00000000 300.00000000 300.00000000 300.00000000 300.00000000 300.00000000 300.00000000 300.00000000 300.00000000 300.00000000 300.00000000 300.00000000 300.00000000 300.00000000 300.00000000 300.00000000 300.00000000 300.00000000 300.00000000 300.00000000 300.00000000 300.00000000 300.00000000 300.00000000 300.00000000 300.00000000 300.00000000 300.00000000 300.00000000 300.00000000 300.00000000 300.00000000 300.00000000 300.00000000 300.00000000 300.00000000 300.00000000 300.00000000 300.00000000 300.00000000 300.00000000 300.00000000 300.00000000 300.00000000 300.00000000 300.00000000 300.00000000 300.00000000 300.00000000 300.00000000 300.00000000 300.00000000 300.00000000 300.00000000 300.00000000 300.00000000 300.00000000 300.00000000 300.00000000 300.00000000 300.00000000 300.00000000 300.00000000 300.00000000 300.00000000 300.00000000 300.00000000 300.00000000 300.00000000 300.00000000 300.00000000 300.00000000 300.00000000 300.00000000 300.00000000 300.00000000 300.00000000 300.00000000 300.00000000 300.00000000 300.00000000 300.00000000 300.00000000 300.00000000 300.00000000 300.00000000 300.00000000 300.00000000 300.00000000 300.00000000 300.00000000 300.00000000 300.00000000 300.00000000 300.00000000 300.00000000 300.00000000 300.00000000 300.00000000 300.00000000 300.00000000 300.00000000 300.00000000 300.00000000 300.00000000 300.00000000 300.00000000 300.00000000 300.00000000 300.00000000 300.00000000 300.00000000 300.00000000 300.00000000 300.00000000 300.00000000 300.00000000 300.00000000 300.00000000 300.00000000 300.00000000 300.00000000 300.00000000 300.00000000 300.00000000 300.00000000 300.00000000 300.00000000 300.00000000 300.00000000 300.00000000 300.00000000 300.00000000 300.00000000 300.00000000 300.00000000 300.00000000 300.00000000 300.00000000 300.00000000 300.00000000 300.00000000 300.00000000 300.00000000 300.00000000 300.00000000 300.00000000 300.00000000 300.00000000 300.00000000 300.00000000 300.00000000 300.00000000 300.00000000 300.00000000 300.00000000 300.00000000 300.00000000 300.00000000 300.00000000 300.00000000 300.00000000 300.00000000 300.00000000 300.00000000 300.00000000 300.00000000 300.00000000 300.00000000 300.00000000 300.00000000 300.00000000 300.00000000 300.00000000 300.00000000 300.00000000 300.00000000 300.00000000 300.00000000 300.00000000 300.00000000 300.00000000 300.00000000 300.00000000 300.00000000 300.00000000 300.00000000 300.00000000 300.00000000 300.00000000 300.00000000 300.00000000 300.00000000 300.00000000 300.00000000 300.00000000 300.00000000 300.00000000 300.00000000 300.00000000 300.00000000 300.00000000 300.00000000 300.00000000 300.00000000 300.00000000 300.00000000 300.00000000 300.00000000 300.00000000 300.00000000 300.00000000 300.00000000 300.00000000 300.00000000 300.00000000 300.00000000 300.00000000 300.00000000 300.00000000 300.00000000 300.00000000 300.00000000 300.00000000 300.00000000 300.00000000 300.00000000 300.00000000 300.00000000 300.00000000 300.00000000 300.00000000 300.00000000 300.00000000 300.00000000 300.00000000 300.00000000 300.00000000 300.00000000 300.00000000 300.00000000 300.00000000 300.00000000 300.00000000 300.00000000 300.00000000 300.00000000 300.00000000 300.00000000 300.00000000 300.00000000 300.00000000 300.00000000 300.00000000 300.00000000 300.00000000 300.00000000 300.00000000 300.00000000 300.00000000 300.00000000 300.00000000 300.00000000 300.00000000 300.00000000 300.00000000 300.00000000 300.00000000 300.00000000 300.00000000 300.00000000 300.00000000 300.00000000 300.00000000 300.00000000 300.00000000 300.00000000 300.00000000 300.00000000 300.00000000 300.00000000 300.00000000 300.00000000 300.00000000 300.00000000 300.00000000 300.00000000 300.00000000 300.00000000 300.00000000 300.00000000 300.00000000 300.00000000 300.00000000 300.00000000 300.00000000 300.00000000 300.00000000 300.00000000 300.00000000 300.00000000 300.00000000 300.00000000 300.00000000 300.00000000 300.00000000 300.00000000 300.00000000 300.00000000 300.00000000 300.00000000 300.00000000 300.00000000 300.00000000 300.00000000 300.00000000 317.63852287 327.11617840 330.58508531 330.58508531 327.11617840 317.63852287 300.00000000 300.00000000 300.00000000 300.00000000 300.00000000 300.00000000 300.00000000 300.00000000 300.00000000 300.00000000 300.00000000 300.00000000 300.00000000 300.00000000 300.00000000 300.00000000 300.00000000 300.00000000 300.00000000 300.00000000 300.00000000 300.00000000 300.00000000 300.00000000 300.00000000 300.00000000 300.00000000 300.00000000 300.00000000 317.69711830 331.28455041 339.88718732 345.93251173 351.48497114 360.13485683 367.07579346 370.42490349 370.42490349 367.07579346 360.13485683 351.48497114 345.93251173 339.88718732 331.28455041 317.69711830 300.00000000 300.00000000 300.00000000 300.00000000 300.00000000 300.00000000 300.00000000 300.00000000 300.00000000 300.00000000 300.00000000 300.00000000 300.00000000 300.00000000 300.00000000 300.00000000 300.00000000 300.00000000 300.00000000 300.00000000 300.00000000 300.00000000 325.36257332 340.39837819 356.15967249 371.03744519 382.94919704 392.28312130 400.04796434 407.19200341 412.68229280 415.53564990 415.53564990 412.68229280 407.19200341 400.04796434 392.28312130 382.94919704 371.03744519 356.15967249 340.39837819 325.36257332 300.00000000 300.00000000 300.00000000 300.00000000 300.00000000 300.00000000 300.00000000 300.00000000 300.00000000 300.00000000 300.00000000 300.00000000 300.00000000 300.00000000 300.00000000 300.00000000 300.00000000 300.00000000 322.60809607 340.01171623 361.54795053 380.57428037 398.08981554 413.96765416 427.39602162 438.32573398 447.13015360 454.12904220 459.09408609 461.65544122 461.65544122 459.09408609 454.12904220 447.13015360 438.32573398 427.39602162 413.96765416 398.08981554 380.57428037 361.54795053 340.01171623 322.60809607 300.00000000 300.00000000 300.00000000 300.00000000 300.00000000 300.00000000 300.00000000 300.00000000 300.00000000 300.00000000 300.00000000 300.00000000 300.00000000 300.00000000 300.00000000 327.90476852 353.24202532 376.64903654 399.71271281 420.88629771 439.91260381 456.64480439 470.80986795 482.38752356 491.55979637 498.50159454 503.21213146 505.59662116 505.59662116 503.21213146 498.50159454 491.55979637 482.38752356 470.80986795 456.64480439 439.91260381 420.88629771 399.71271281 376.64903654 353.24202532 327.90476852 300.00000000 300.00000000 300.00000000 300.00000000 300.00000000 300.00000000 300.00000000 300.00000000 300.00000000 300.00000000 300.00000000 300.00000000 312.82283473 332.27509510 358.92470477 386.18988603 412.44587247 437.21558665 459.72911756 479.62190266 496.75620739 511.08266444 522.68650573 531.74989434 538.45243636 542.89606259 545.11407864 545.11407864 542.89606259 538.45243636 531.74989434 522.68650573 511.08266444 496.75620739 479.62190266 459.72911756 437.21558665 412.44587247 386.18988603 358.92470477 332.27509510 312.82283473 300.00000000 300.00000000 300.00000000 300.00000000 300.00000000 300.00000000 300.00000000 300.00000000 300.00000000 300.00000000 330.80884807 359.17385514 388.71823543 418.13924697 446.23690536 472.19739970 495.40662092 515.55959841 532.59727920 546.61283408 557.80400094 566.41786933 572.68617948 576.78042773 578.80391242 578.80391242 576.78042773 572.68617948 566.41786933 557.80400094 546.61283408 532.59727920 515.55959841 495.40662092 472.19739970 446.23690536 418.13924697 388.71823543 359.17385514 330.80884807 300.00000000 300.00000000 300.00000000 300.00000000 300.00000000 300.00000000 300.00000000 300.00000000 300.00000000 323.64532702 353.01237268 384.17815972 416.01467678 447.18343045 476.50737531 503.12847918 526.51385565 546.45532761 563.00343388 576.37575105 586.87804079 594.83695815 600.54545497 604.22905477 606.03503730 606.03503730 604.22905477 600.54545497 594.83695815 586.87804079 576.37575105 563.00343388 546.45532761 526.51385565 503.12847918 476.50737531 447.18343045 416.01467678 384.17815972 353.01237268 323.64532702 300.00000000 300.00000000 300.00000000 300.00000000 300.00000000 300.00000000 300.00000000 316.35676931 341.90072864 372.72598367 405.88911881 439.46866551 471.90944046 501.98571752 528.85318521 552.05757840 571.49655806 587.33559773 599.90536665 609.60823547 616.84462163 621.96207476 625.22723068 626.81640034 626.81640034 625.22723068 621.96207476 616.84462163 609.60823547 599.90536665 587.33559773 571.49655806 552.05757840 528.85318521 501.98571752 471.90944046 439.46866551 405.88911881 372.72598367 341.90072864 316.35676931 300.00000000 300.00000000 300.00000000 300.00000000 300.00000000 300.00000000 325.46346696 355.03619598 388.15568587 423.06241213 457.95763035 491.26219110 521.74578564 548.60148455 571.45222780 590.29381345 605.39413048 617.17858657 626.12787306 632.70130147 637.28828801 640.18436240 641.58440413 641.58440413 640.18436240 637.28828801 632.70130147 626.12787306 617.17858657 605.39413048 590.29381345 571.45222780 548.60148455 521.74578564 491.26219110 457.95763035 423.06241213 388.15568587 355.03619598 325.46346696 300.00000000 300.00000000 300.00000000 300.00000000 300.00000000 300.00000000 331.24711362 363.79266324 398.73154136 434.90997884 470.68920290 504.51995301 535.19002030 561.93206803 584.43188452 602.76075981 617.26286779 628.43175551 636.80286428 642.87567222 647.06711853 649.69063793 650.95186993 650.95186993 649.69063793 647.06711853 642.87567222 636.80286428 628.43175551 617.26286779 602.76075981 584.43188452 561.93206803 535.19002030 504.51995301 470.68920290 434.90997884 398.73154136 363.79266324 331.24711362 300.00000000 300.00000000 300.00000000 300.00000000 300.00000000 309.17992890 335.90599143 368.54683954 404.17403960 440.96197535 477.17384361 511.24911393 541.98420092 568.63504656 590.92250265 608.95882572 623.12879207 633.96151207 642.02047417 647.82534264 651.80653097 654.28591096 655.47397166 655.47397166 654.28591096 651.80653097 647.82534264 642.02047417 633.96151207 623.12879207 608.95882572 590.92250265 568.63504656 541.98420092 511.24911393 477.17384361 440.96197535 404.17403960 368.54683954 335.90599143 309.17992890 300.00000000 300.00000000 300.00000000 300.00000000 309.17992890 335.90599143 368.54683954 404.17403960 440.96197535 477.17384361 511.24911393 541.98420092 568.63504656 590.92250265 608.95882572 623.12879207 633.96151207 642.02047417 647.82534264 651.80653097 654.28591096 655.47397166 655.47397166 654.28591096 651.80653097 647.82534264 642.02047417 633.96151207 623.12879207 608.95882572 590.92250265 568.63504656 541.98420092 511.24911393 477.17384361 440.96197535 404.17403960 368.54683954 335.90599143 309.17992890 300.00000000 300.00000000 300.00000000 300.00000000 300.00000000 331.24711362 363.79266324 398.73154136 434.90997884 470.68920290 504.51995301 535.19002030 561.93206803 584.43188452 602.76075981 617.26286779 628.43175551 636.80286428 642.87567222 647.06711853 649.69063793 650.95186993 650.95186993 649.69063793 647.06711853 642.87567222 636.80286428 628.43175551 617.26286779 602.76075981 584.43188452 561.93206803 535.19002030 504.51995301 470.68920290 434.90997884 398.73154136 363.79266324 331.24711362 300.00000000 300.00000000 300.00000000 300.00000000 300.00000000 300.00000000 325.46346696 355.03619598 388.15568587 423.06241213 457.95763035 491.26219110 521.74578564 548.60148455 571.45222780 590.29381345 605.39413048 617.17858657 626.12787306 632.70130147 637.28828801 640.18436240 641.58440413 641.58440413 640.18436240 637.28828801 632.70130147 626.12787306 617.17858657 605.39413048 590.29381345 571.45222780 548.60148455 521.74578564 491.26219110 457.95763035 423.06241213 388.15568587 355.03619598 325.46346696 300.00000000 300.00000000 300.00000000 300.00000000 300.00000000 300.00000000 316.35676931 341.90072864 372.72598367 405.88911881 439.46866551 471.90944046 501.98571752 528.85318521 552.05757840 571.49655806 587.33559773 599.90536665 609.60823547 616.84462163 621.96207476 625.22723068 626.81640034 626.81640034 625.22723068 621.96207476 616.84462163 609.60823547 599.90536665 587.33559773 571.49655806 552.05757840 528.85318521 501.98571752 471.90944046 439.46866551 405.88911881 372.72598367 341.90072864 316.35676931 300.00000000 300.00000000 300.00000000 300.00000000 300.00000000 300.00000000 300.00000000 323.64532702 353.01237268 384.17815972 416.01467678 447.18343045 476.50737531 503.12847918 526.51385565 546.45532761 563.00343388 576.37575105 586.87804079 594.83695815 600.54545497 604.22905477 606.03503730 606.03503730 604.22905477 600.54545497 594.83695815 586.87804079 576.37575105 563.00343388 546.45532761 526.51385565 503.12847918 476.50737531 447.18343045 416.01467678 384.17815972 353.01237268 323.64532702 300.00000000 300.00000000 300.00000000 300.00000000 300.00000000 300.00000000 300.00000000 300.00000000 300.00000000 330.80884807 359.17385514 388.71823543 418.13924697 446.23690536 472.19739970 495.40662092 515.55959841 532.59727920 546.61283408 557.80400094 566.41786933 572.68617948 576.78042773 578.80391242 578.80391242 576.78042773 572.68617948 566.41786933 557.80400094 546.61283408 532.59727920 515.55959841 495.40662092 472.19739970 446.23690536 418.13924697 388.71823543 359.17385514 330.80884807 300.00000000 300.00000000 300.00000000 300.00000000 300.00000000 300.00000000 300.00000000 300.00000000 300.00000000 300.00000000 312.82283473 332.27509510 358.92470477 386.18988603 412.44587247 437.21558665 459.72911756 479.62190266 496.75620739 511.08266444 522.68650573 531.74989434 538.45243636 542.89606259 545.11407864 545.11407864 542.89606259 538.45243636 531.74989434 522.68650573 511.08266444 496.75620739 479.62190266 459.72911756 437.21558665 412.44587247 386.18988603 358.92470477 332.27509510 312.82283473 300.00000000 300.00000000 300.00000000 300.00000000 300.00000000 300.00000000 300.00000000 300.00000000 300.00000000 300.00000000 300.00000000 300.00000000 327.90476852 353.24202532 376.64903654 399.71271281 420.88629771 439.91260381 456.64480439 470.80986795 482.38752356 491.55979637 498.50159454 503.21213146 505.59662116 505.59662116 503.21213146 498.50159454 491.55979637 482.38752356 470.80986795 456.64480439 439.91260381 420.88629771 399.71271281 376.64903654 353.24202532 327.90476852 300.00000000 300.00000000 300.00000000 300.00000000 300.00000000 300.00000000 300.00000000 300.00000000 300.00000000 300.00000000 300.00000000 300.00000000 300.00000000 300.00000000 300.00000000 322.60809607 340.01171623 361.54795053 380.57428037 398.08981554 413.96765416 427.39602162 438.32573398 447.13015360 454.12904220 459.09408609 461.65544122 461.65544122 459.09408609 454.12904220 447.13015360 438.32573398 427.39602162 413.96765416 398.08981554 380.57428037 361.54795053 340.01171623 322.60809607 300.00000000 300.00000000 300.00000000 300.00000000 300.00000000 300.00000000 300.00000000 300.00000000 300.00000000 300.00000000 300.00000000 300.00000000 300.00000000 300.00000000 300.00000000 300.00000000 300.00000000 300.00000000 325.36257332 340.39837819 356.15967249 371.03744519 382.94919704 392.28312130 400.04796434 407.19200341 412.68229280 415.53564990 415.53564990 412.68229280 407.19200341 400.04796434 392.28312130 382.94919704 371.03744519 356.15967249 340.39837819 325.36257332 300.00000000 300.00000000 300.00000000 300.00000000 300.00000000 300.00000000 300.00000000 300.00000000 300.00000000 300.00000000 300.00000000 300.00000000 300.00000000 300.00000000 300.00000000 300.00000000 300.00000000 300.00000000 300.00000000 300.00000000 300.00000000 300.00000000 317.69711830 331.28455041 339.88718732 345.93251173 351.48497114 360.13485683 367.07579346 370.42490349 370.42490349 367.07579346 360.13485683 351.48497114 345.93251173 339.88718732 331.28455041 317.69711830 300.00000000 300.00000000 300.00000000 300.00000000 300.00000000 300.00000000 300.00000000 300.00000000 300.00000000 300.00000000 300.00000000 300.00000000 300.00000000 300.00000000 300.00000000 300.00000000 300.00000000 300.00000000 300.00000000 300.00000000 300.00000000 300.00000000 300.00000000 300.00000000 300.00000000 300.00000000 300.00000000 300.00000000 300.00000000 317.63852287 327.11617840 330.58508531 330.58508531 327.11617840 317.63852287 300.00000000 300.00000000 300.00000000 300.00000000 300.00000000 300.00000000 300.00000000 300.00000000 300.00000000 300.00000000 300.00000000 300.00000000 300.00000000 300.00000000 300.00000000 300.00000000 300.00000000 300.00000000 300.00000000 300.00000000 300.00000000 300.00000000 300.00000000 300.00000000 300.00000000 300.00000000 300.00000000 300.00000000 300.00000000 300.00000000 300.00000000 300.00000000 300.00000000 300.00000000 300.00000000 300.00000000 300.00000000 300.00000000 300.00000000 300.00000000 300.00000000 300.00000000 300.00000000 300.00000000 300.00000000 300.00000000 300.00000000 300.00000000 300.00000000 300.00000000 300.00000000 300.00000000 300.00000000 300.00000000 300.00000000 300.00000000 300.00000000 300.00000000 300.00000000 300.00000000 300.00000000 300.00000000 300.00000000 300.00000000 300.00000000 300.00000000 300.00000000 300.00000000 300.00000000 300.00000000 300.00000000 300.00000000 300.00000000 300.00000000 300.00000000 300.00000000 300.00000000 300.00000000 300.00000000 300.00000000 300.00000000 300.00000000 300.00000000 300.00000000 300.00000000 300.00000000 300.00000000 300.00000000 300.00000000 300.00000000 300.00000000 300.00000000 300.00000000 300.00000000 300.00000000 300.00000000 300.00000000 300.00000000 300.00000000 300.00000000 300.00000000 300.00000000 300.00000000 300.00000000 300.00000000 300.00000000 300.00000000 300.00000000 300.00000000 300.00000000 300.00000000 300.00000000 300.00000000 300.00000000 300.00000000 300.00000000 300.00000000 300.00000000 300.00000000 300.00000000 300.00000000 300.00000000 300.00000000 300.00000000 300.00000000 300.00000000 300.00000000 300.00000000 300.00000000 300.00000000 300.00000000 300.00000000 300.00000000 300.00000000 300.00000000 300.00000000 300.00000000 300.00000000 300.00000000 300.00000000 300.00000000 300.00000000 300.00000000 300.00000000 300.00000000 300.00000000 300.00000000 300.00000000 300.00000000 300.00000000 300.00000000 300.00000000 300.00000000 300.00000000 300.00000000 300.00000000 300.00000000 300.00000000 300.00000000 300.00000000 300.00000000 300.00000000 300.00000000 300.00000000 300.00000000 300.00000000 300.00000000 300.00000000 300.00000000 300.00000000 300.00000000 300.00000000 300.00000000 300.00000000 300.00000000 300.00000000 300.00000000 300.00000000 300.00000000 300.00000000 300.00000000 300.00000000 300.00000000 300.00000000 300.00000000 300.00000000 300.00000000 300.00000000 300.00000000 300.00000000 300.00000000 300.00000000 300.00000000 300.00000000 300.00000000 300.00000000 300.00000000 300.00000000 300.00000000 300.00000000 300.00000000 300.00000000 300.00000000 300.00000000 300.00000000 300.00000000 300.00000000 300.00000000 300.00000000 300.00000000 300.00000000 300.00000000 300.00000000 300.00000000 300.00000000 300.00000000 300.00000000 300.00000000 300.00000000 300.00000000 300.00000000 300.00000000 300.00000000 300.00000000 300.00000000 300.00000000 300.00000000 300.00000000 300.00000000 300.00000000 300.00000000 300.00000000 300.00000000 300.00000000 300.00000000 300.00000000 300.00000000 300.00000000 300.00000000 300.00000000 300.00000000 300.00000000 300.00000000 300.00000000 300.00000000 300.00000000 300.00000000 300.00000000 300.00000000 300.00000000 300.00000000 300.00000000 300.00000000 300.00000000 300.00000000 300.00000000 300.00000000 300.00000000 300.00000000 300.00000000 300.00000000 300.00000000 300.00000000 300.00000000 300.00000000 300.00000000 300.00000000 300.00000000 300.00000000 300.00000000 300.00000000 300.00000000 300.00000000 300.00000000 300.00000000 300.00000000 300.00000000 300.00000000 300.00000000 300.00000000 300.00000000 300.00000000 300.00000000 300.00000000 300.00000000 300.00000000 300.00000000 300.00000000 300.00000000 300.00000000 300.00000000 300.00000000 300.00000000 300.00000000 300.00000000 300.00000000 300.00000000 300.00000000 300.00000000 300.00000000 300.00000000 300.00000000 300.00000000 300.00000000 300.00000000 300.00000000 300.00000000 300.00000000 300.00000000 300.00000000 300.00000000 300.00000000 300.00000000 300.00000000 300.00000000 300.00000000 300.00000000 300.00000000 300.00000000 300.00000000 300.00000000 300.00000000 300.00000000 300.00000000 300.00000000 300.00000000 300.00000000 300.00000000 300.00000000 300.00000000 300.00000000 300.00000000 300.00000000 300.00000000 300.00000000 300.00000000 300.00000000 