# vtk DataFile Version 3.0
VTK - Matlab export
ASCII
DATASET STRUCTURED_POINTS
DIMENSIONS 40 40 1
SPACING 1 1 1
ORIGIN 0 0 0
POINT_DATA 1600
SCALARS lambda-2 float 1
LOOKUP_TABLE default
7.22156776 7.22156776 7.22156776 7.22156776 7.22156776 7.22156776 7.22156776 7.22156776 7.22156776 7.22156776 7.22156776 7.22156776 7.22156776 7.22156776 7.22156776 7.22156776 7.22156776 7.22156776 7.22156776 7.22156776 7.22156776 7.22156776 7.22156776 7.22156776 7.22156776 7.22156776 7.22156776 7.22156776 7.22156776 7.22156776 7.22156776 7.22156776 7.22156776 7.22156776 7.22156776 7.22156776 7.22156776 7.22156776 7.22156776 7.22156776 7.22156776 7.22156776 7.22156776 7.22156776 7.22156776 7.22156776 7.22156776 7.22156776 7.22156776 7.22156776 7.22156776 7.22156776 7.22156776 7.22156776 7.22156776 7.22156776 7.22156776 7.22156776 7.22156776 7.22156776 7.22156776 7.22156776 7.22156776 7.22156776 7.22156776 7.22156776 7.22156776 7.22156776 7.22156776 7.22156776 7.22156776 7.22156776 7.22156776 7.22156776 7.22156776 7.22156776 7.22156776 7.22156776 7.22156776 7.22156776 7.22156776 7.22156776 7.22156776 7.22156776 7.22156776 7.22156776 7.22156776 7.22156776 7.22156776 7.22156776 7.22156776 7.22156776 7.22156776 7.22156776 7.22156776 7.22156776 7.22156776 7.22156776 7.22156776 7.22156776 7.22156776 7.22156776 7.22156776 7.22156776 7.22156776 7.22156776 7.22156776 7.22156776 7.22156776 7.22156776 7.22156776 7.22156776 7.22156776 7.22156776 7.22156776 7.22156776 7.22156776 7.22156776 7.22156776 7.22156776 7.22156776 7.22156776 7.22156776 7.22156776 7.22156776 7.22156776 7.22156776 7.22156776 7.22156776 7.22156776 7.22156776 7.22156776 7.22156776 7.22156776 7.22156776 7.22156776 7.22156776 7.22156776 7.22156776 7.22156776 7.22156776 7.22156776 7.22156776 7.22156776 7.22156776 7.22156776 7.22156776 7.22156776 7.22156776 7.22156776 7.22156776 7.22156776 7.22156776 7.22156776 7.22156776 7.22156776 7.22156776 7.22156776 7.22156776 7.22156776 7.22156776 7.22156776 7.22156776 7.22156776 7.22156776 7.22156776 7.22156776 7.22156776 7.22156776 7.22156776 7.22156776 7.22156776 7.22156776 7.22156776 7.22156776 7.22156776 7.22156776 7.22156776 7.22156776 7.22156776 7.22156776 7.22156776 7.22156776 7.22156776 7.22156776 7.22156776 7.22156776 7.22156776 7.22156776 7.22156776 7.22156776 7.22156776 7.22156776 7.22156776 7.22156776 7.22156776 7.22156776 7.22156776 7.22156776 7.22156776 7.22156776 7.22156776 7.22156776 7.22156776 7.22156776 7.22156776 7.22156776 7.22156776 7.22156776 7.22156776 7.22156776 7.22156776 7.22156776 7.22156776 7.22156776 7.22156776 7.22156776 7.22156776 7.22156776 7.22156776 7.22156776 7.22156776 7.22156776 7.22156776 7.22156776 7.22156776 7.22156776 7.22156776 7.22156776 7.22156776 7.22156776 7.22156776 7.22156776 7.22156776 7.22156776 7.22156776 7.22156776 7.22156776 7.22156776 7.22156776 7.22156776 7.22156776 7.22156776 7.22156776 7.22156776 7.22156776 7.22156776 7.22156776 7.22156776 7.22156776 7.22156776 7.22156776 7.22156776 7.22156776 7.22156776 7.22156776 7.22156776 7.22156776 7.22156776 7.22156776 7.22156776 7.22156776 7.22156776 7.22156776 7.22156776 7.22156776 7.22156776 7.22156776 7.22156776 7.22156776 7.22156776 7.22156776 7.22156776 7.22156776 7.22156776 7.22156776 7.22156776 7.22156776 7.22156776 7.22156776 7.22156776 7.22156776 7.22156776 7.22156776 7.22156776 7.22156776 7.22156776 7.22156776 7.22156776 7.22156776 7.22156776 7.22156776 7.22156776 7.22156776 7.22156776 7.22156776 7.22156776 7.22156776 7.22156776 7.22156776 7.22156776 7.22156776 7.22156776 7.22156776 7.22156776 7.22156776 7.22156776 7.22156776 7.22156776 7.22156776 7.22156776 7.22156776 7.22156776 7.22156776 7.22156776 7.22156776 7.22156776 7.22156776 7.22156776 7.22156776 7.22156776 7.22156776 7.22156776 7.22156776 7.22156776 7.22156776 7.22156776 7.22156776 7.22156776 7.22156776 7.22156776 7.22156776 7.22156776 7.22156776 7.22156776 7.22156776 7.22156776 7.21003153 7.20245236 7.19922701 7.19922701 7.20245236 7.21003153 7.22156776 7.22156776 7.22156776 7.22156776 7.22156776 7.22156776 7.22156776 7.22156776 7.22156776 7.22156776 7.22156776 7.22156776 7.22156776 7.22156776 7.22156776 7.22156776 7.22156776 7.22156776 7.22156776 7.22156776 7.22156776 7.22156776 7.22156776 7.22156776 7.22156776 7.22156776 7.22156776 7.22156776 7.22156776 7.20964601 7.20088861 7.19685794 7.19551232 7.19423901 7.18945944 7.18450618 7.18184811 7.18184811 7.18450618 7.18945944 7.19423901 7.19551232 7.19685794 7.20088861 7.20964601 7.22156776 7.22156776 7.22156776 7.22156776 7.22156776 7.22156776 7.22156776 7.22156776 7.22156776 7.22156776 7.22156776 7.22156776 7.22156776 7.22156776 7.22156776 7.22156776 7.22156776 7.22156776 7.22156776 7.22156776 7.22156776 7.22156776 7.20427112 7.19612949 7.18913981 7.18391646 7.18200512 7.18241029 7.18307070 7.18228356 7.18077942 7.17982704 7.17982704 7.18077942 7.18228356 7.18307070 7.18241029 7.18200512 7.18391646 7.18913981 7.19612949 7.20427112 7.22156776 7.22156776 7.22156776 7.22156776 7.22156776 7.22156776 7.22156776 7.22156776 7.22156776 7.22156776 7.22156776 7.22156776 7.22156776 7.22156776 7.22156776 7.22156776 7.22156776 7.22156776 7.20552031 7.19595344 7.18630091 7.18187983 7.18066838 7.18120034 7.18324210 7.18606593 7.18857233 7.19003760 7.19065510 7.19089137 7.19089137 7.19065510 7.19003760 7.18857233 7.18606593 7.18324210 7.18120034 7.18066838 7.18187983 7.18630091 7.19595344 7.20552031 7.22156776 7.22156776 7.22156776 7.22156776 7.22156776 7.22156776 7.22156776 7.22156776 7.22156776 7.22156776 7.22156776 7.22156776 7.22156776 7.22156776 7.22156776 7.20239655 7.18887637 7.18227873 7.18029749 7.18237002 7.18643697 7.19082532 7.19493444 7.19847866 7.20120572 7.20304070 7.20414708 7.20469002 7.20469002 7.20414708 7.20304070 7.20120572 7.19847866 7.19493444 7.19082532 7.18643697 7.18237002 7.18029749 7.18227873 7.18887637 7.20239655 7.22156776 7.22156776 7.22156776 7.22156776 7.22156776 7.22156776 7.22156776 7.22156776 7.22156776 7.22156776 7.22156776 7.22156776 7.21107910 7.19852386 7.18623754 7.18056170 7.18149137 7.18629980 7.19265196 7.19874642 7.20368451 7.20738635 7.21005856 7.21191456 7.21314919 7.21392424 7.21431371 7.21431371 7.21392424 7.21314919 7.21191456 7.21005856 7.20738635 7.20368451 7.19874642 7.19265196 7.18629980 7.18149137 7.18056170 7.18623754 7.19852386 7.21107910 7.22156776 7.22156776 7.22156776 7.22156776 7.22156776 7.22156776 7.22156776 7.22156776 7.22156776 7.22156776 7.19813316 7.18464611 7.17990887 7.18269260 7.18973444 7.19768538 7.20459141 7.20975949 7.21327395 7.21554913 7.21699714 7.21791711 7.21850596 7.21887442 7.21905969 7.21905969 7.21887442 7.21850596 7.21791711 7.21699714 7.21554913 7.21327395 7.20975949 7.20459141 7.19768538 7.18973444 7.18269260 7.17990887 7.18464611 7.19813316 7.22156776 7.22156776 7.22156776 7.22156776 7.22156776 7.22156776 7.22156776 7.22156776 7.22156776 7.20137151 7.18473623 7.17883874 7.18252284 7.19123385 7.20057703 7.20812189 7.21330886 7.21652956 7.21840858 7.21947610 7.22008375 7.22043851 7.22065530 7.22078882 7.22085554 7.22085554 7.22078882 7.22065530 7.22043851 7.22008375 7.21947610 7.21840858 7.21652956 7.21330886 7.20812189 7.20057703 7.19123385 7.18252284 7.17883874 7.18473623 7.20137151 7.22156776 7.22156776 7.22156776 7.22156776 7.22156776 7.22156776 7.22156776 7.20499912 7.18664540 7.17736276 7.18000805 7.18987998 7.20087040 7.20947772 7.21499998 7.21811775 7.21974245 7.22055518 7.22095972 7.22116585 7.22127644 7.22134075 7.22137955 7.22139875 7.22139875 7.22137955 7.22134075 7.22127644 7.22116585 7.22095972 7.22055518 7.21974245 7.21811775 7.21499998 7.20947772 7.20087040 7.18987998 7.18000805 7.17736276 7.18664540 7.20499912 7.22156776 7.22156776 7.22156776 7.22156776 7.22156776 7.22156776 7.19654569 7.17905972 7.17600786 7.18489092 7.19770987 7.20837441 7.21508994 7.21862207 7.22026941 7.22098412 7.22128610 7.22141595 7.22147469 7.22150352 7.22151944 7.22152882 7.22153341 7.22153341 7.22152882 7.22151944 7.22150352 7.22147469 7.22141595 7.22128610 7.22098412 7.22026941 7.21862207 7.21508994 7.20837441 7.19770987 7.18489092 7.17600786 7.17905972 7.19654569 7.22156776 7.22156776 7.22156776 7.22156776 7.22156776 7.22156776 7.19221069 7.17624189 7.17763464 7.18996677 7.20349156 7.21294067 7.21798558 7.22021629 7.22107951 7.22138719 7.22149416 7.22153279 7.22154799 7.22155474 7.22155828 7.22156033 7.22156132 7.22156132 7.22156033 7.22155828 7.22155474 7.22154799 7.22153279 7.22149416 7.22138719 7.22107951 7.22021629 7.21798558 7.21294067 7.20349156 7.18996677 7.17763464 7.17624189 7.19221069 7.22156776 7.22156776 7.22156776 7.22156776 7.22156776 7.21189788 7.18826342 7.17510742 7.17913658 7.19293742 7.20639821 7.21497947 7.21913552 7.22077490 7.22132765 7.22149478 7.22154303 7.22155751 7.22156239 7.22156434 7.22156532 7.22156590 7.22156618 7.22156618 7.22156590 7.22156532 7.22156434 7.22156239 7.22155751 7.22154303 7.22149478 7.22132765 7.22077490 7.21913552 7.21497947 7.20639821 7.19293742 7.17913658 7.17510742 7.18826342 7.21189788 7.22156776 7.22156776 7.22156776 7.22156776 7.21189788 7.18826342 7.17510742 7.17913658 7.19293742 7.20639821 7.21497947 7.21913552 7.22077490 7.22132765 7.22149478 7.22154303 7.22155751 7.22156239 7.22156434 7.22156532 7.22156590 7.22156618 7.22156618 7.22156590 7.22156532 7.22156434 7.22156239 7.22155751 7.22154303 7.22149478 7.22132765 7.22077490 7.21913552 7.21497947 7.20639821 7.19293742 7.17913658 7.17510742 7.18826342 7.21189788 7.22156776 7.22156776 7.22156776 7.22156776 7.22156776 7.19221069 7.17624189 7.17763464 7.18996677 7.20349156 7.21294067 7.21798558 7.22021629 7.22107951 7.22138719 7.22149416 7.22153279 7.22154799 7.22155474 7.22155828 7.22156033 7.22156132 7.22156132 7.22156033 7.22155828 7.22155474 7.22154799 7.22153279 7.22149416 7.22138719 7.22107951 7.22021629 7.21798558 7.21294067 7.20349156 7.18996677 7.17763464 7.17624189 7.19221069 7.22156776 7.22156776 7.22156776 7.22156776 7.22156776 7.22156776 7.19654569 7.17905972 7.17600786 7.18489092 7.19770987 7.20837441 7.21508994 7.21862207 7.22026941 7.22098412 7.22128610 7.22141595 7.22147469 7.22150352 7.22151944 7.22152882 7.22153341 7.22153341 7.22152882 7.22151944 7.22150352 7.22147469 7.22141595 7.22128610 7.22098412 7.22026941 7.21862207 7.21508994 7.20837441 7.19770987 7.18489092 7.17600786 7.17905972 7.19654569 7.22156776 7.22156776 7.22156776 7.22156776 7.22156776 7.22156776 7.20499912 7.18664540 7.17736276 7.18000805 7.18987998 7.20087040 7.20947772 7.21499998 7.21811775 7.21974245 7.22055518 7.22095972 7.22116585 7.22127644 7.22134075 7.22137955 7.22139875 7.22139875 7.22137955 7.22134075 7.22127644 7.22116585 7.22095972 7.22055518 7.21974245 7.21811775 7.21499998 7.20947772 7.20087040 7.18987998 7.18000805 7.17736276 7.18664540 7.20499912 7.22156776 7.22156776 7.22156776 7.22156776 7.22156776 7.22156776 7.22156776 7.20137151 7.18473623 7.17883874 7.18252284 7.19123385 7.20057703 7.20812189 7.21330886 7.21652956 7.21840858 7.21947610 7.22008375 7.22043851 7.22065530 7.22078882 7.22085554 7.22085554 7.22078882 7.22065530 7.22043851 7.22008375 7.21947610 7.21840858 7.21652956 7.21330886 7.20812189 7.20057703 7.19123385 7.18252284 7.17883874 7.18473623 7.20137151 7.22156776 7.22156776 7.22156776 7.22156776 7.22156776 7.22156776 7.22156776 7.22156776 7.22156776 7.19813316 7.18464611 7.17990887 7.18269260 7.18973444 7.19768538 7.20459141 7.20975949 7.21327395 7.21554913 7.21699714 7.21791711 7.21850596 7.21887442 7.21905969 7.21905969 7.21887442 7.21850596 7.21791711 7.21699714 7.21554913 7.21327395 7.20975949 7.20459141 7.19768538 7.18973444 7.18269260 7.17990887 7.18464611 7.19813316 7.22156776 7.22156776 7.22156776 7.22156776 7.22156776 7.22156776 7.22156776 7.22156776 7.22156776 7.22156776 7.21107910 7.19852386 7.18623754 7.18056170 7.18149137 7.18629980 7.19265196 7.19874642 7.20368451 7.20738635 7.21005856 7.21191456 7.21314919 7.21392424 7.21431371 7.21431371 7.21392424 7.21314919 7.21191456 7.21005856 7.20738635 7.20368451 7.19874642 7.19265196 7.18629980 7.18149137 7.18056170 7.18623754 7.19852386 7.21107910 7.22156776 7.22156776 7.22156776 7.22156776 7.22156776 7.22156776 7.22156776 7.22156776 7.22156776 7.22156776 7.22156776 7.22156776 7.20239655 7.18887637 7.18227873 7.18029749 7.18237002 7.18643697 7.19082532 7.19493444 7.19847866 7.20120572 7.20304070 7.20414708 7.20469002 7.20469002 7.20414708 7.20304070 7.20120572 7.19847866 7.19493444 7.19082532 7.18643697 7.18237002 7.18029749 7.18227873 7.18887637 7.20239655 7.22156776 7.22156776 7.22156776 7.22156776 7.22156776 7.22156776 7.22156776 7.22156776 7.22156776 7.22156776 7.22156776 7.22156776 7.22156776 7.22156776 7.22156776 7.20552031 7.19595344 7.18630091 7.18187983 7.18066838 7.18120034 7.18324210 7.18606593 7.18857233 7.19003760 7.19065510 7.19089137 7.19089137 7.19065510 7.19003760 7.18857233 7.18606593 7.18324210 7.18120034 7.18066838 7.18187983 7.18630091 7.19595344 7.20552031 7.22156776 7.22156776 7.22156776 7.22156776 7.22156776 7.22156776 7.22156776 7.22156776 7.22156776 7.22156776 7.22156776 7.22156776 7.22156776 7.22156776 7.22156776 7.22156776 7.22156776 7.22156776 7.20427112 7.19612949 7.18913981 7.18391646 7.18200512 7.18241029 7.18307070 7.18228356 7.18077942 7.17982704 7.17982704 7.18077942 7.18228356 7.18307070 7.18241029 7.18200512 7.18391646 7.18913981 7.19612949 7.20427112 7.22156776 7.22156776 7.22156776 7.22156776 7.22156776 7.22156776 7.22156776 7.22156776 7.22156776 7.22156776 7.22156776 7.22156776 7.22156776 7.22156776 7.22156776 7.22156776 7.22156776 7.22156776 7.22156776 7.22156776 7.22156776 7.22156776 7.20964601 7.20088861 7.19685794 7.19551232 7.19423901 7.18945944 7.18450618 7.18184811 7.18184811 7.18450618 7.18945944 7.19423901 7.19551232 7.19685794 7.20088861 7.20964601 7.22156776 7.22156776 7.22156776 7.22156776 7.22156776 7.22156776 7.22156776 7.22156776 7.22156776 7.22156776 7.22156776 7.22156776 7.22156776 7.22156776 7.22156776 7.22156776 7.22156776 7.22156776 7.22156776 7.22156776 7.22156776 7.22156776 7.22156776 7.22156776 7.22156776 7.22156776 7.22156776 7.22156776 7.22156776 7.21003153 7.20245236 7.19922701 7.19922701 7.20245236 7.21003153 7.22156776 7.22156776 7.22156776 7.22156776 7.22156776 7.22156776 7.22156776 7.22156776 7.22156776 7.22156776 7.22156776 7.22156776 7.22156776 7.22156776 7.22156776 7.22156776 7.22156776 7.22156776 7.22156776 7.22156776 7.22156776 7.22156776 7.22156776 7.22156776 7.22156776 7.22156776 7.22156776 7.22156776 7.22156776 7.22156776 7.22156776 7.22156776 7.22156776 7.22156776 7.22156776 7.22156776 7.22156776 7.22156776 7.22156776 7.22156776 7.22156776 7.22156776 7.22156776 7.22156776 7.22156776 7.22156776 7.22156776 7.22156776 7.22156776 7.22156776 7.22156776 7.22156776 7.22156776 7.22156776 7.22156776 7.22156776 7.22156776 7.22156776 7.22156776 7.22156776 7.22156776 7.22156776 7.22156776 7.22156776 7.22156776 7.22156776 7.22156776 7.22156776 7.22156776 7.22156776 7.22156776 7.22156776 7.22156776 7.22156776 7.22156776 7.22156776 7.22156776 7.22156776 7.22156776 7.22156776 7.22156776 7.22156776 7.22156776 7.22156776 7.22156776 7.22156776 7.22156776 7.22156776 7.22156776 7.22156776 7.22156776 7.22156776 7.22156776 7.22156776 7.22156776 7.22156776 7.22156776 7.22156776 7.22156776 7.22156776 7.22156776 7.22156776 7.22156776 7.22156776 7.22156776 7.22156776 7.22156776 7.22156776 7.22156776 7.22156776 7.22156776 7.22156776 7.22156776 7.22156776 7.22156776 7.22156776 7.22156776 7.22156776 7.22156776 7.22156776 7.22156776 7.22156776 7.22156776 7.22156776 7.22156776 7.22156776 7.22156776 7.22156776 7.22156776 7.22156776 7.22156776 7.22156776 7.22156776 7.22156776 7.22156776 7.22156776 7.22156776 7.22156776 7.22156776 7.22156776 7.22156776 7.22156776 7.22156776 7.22156776 7.22156776 7.22156776 7.22156776 7.22156776 7.22156776 7.22156776 7.22156776 7.22156776 7.22156776 7.22156776 7.22156776 7.22156776 7.22156776 7.22156776 7.22156776 7.22156776 7.22156776 7.22156776 7.22156776 7.22156776 7.22156776 7.22156776 7.22156776 7.22156776 7.22156776 7.22156776 7.22156776 7.22156776 7.22156776 7.22156776 7.22156776 7.22156776 7.22156776 7.22156776 7.22156776 7.22156776 7.22156776 7.22156776 7.22156776 7.22156776 7.22156776 7.22156776 7.22156776 7.22156776 7.22156776 7.22156776 7.22156776 7.22156776 7.22156776 7.22156776 7.22156776 7.22156776 7.22156776 7.22156776 7.22156776 7.22156776 7.22156776 7.22156776 7.22156776 7.22156776 7.22156776 7.22156776 7.22156776 7.22156776 7.22156776 7.22156776 7.22156776 7.22156776 7.22156776 7.22156776 7.22156776 7.22156776 7.22156776 7.22156776 7.22156776 7.22156776 7.22156776 7.22156776 7.22156776 7.22156776 7.22156776 7.22156776 7.22156776 7.22156776 7.22156776 7.22156776 7.22156776 7.22156776 7.22156776 7.22156776 7.22156776 7.22156776 7.22156776 7.22156776 7.22156776 7.22156776 7.22156776 7.22156776 7.22156776 7.22156776 7.22156776 7.22156776 7.22156776 7.22156776 7.22156776 7.22156776 7.22156776 7.22156776 7.22156776 7.22156776 7.22156776 7.22156776 7.22156776 7.22156776 7.22156776 7.22156776 7.22156776 7.22156776 7.22156776 7.22156776 7.22156776 7.22156776 7.22156776 7.22156776 7.22156776 7.22156776 7.22156776 7.22156776 7.22156776 7.22156776 7.22156776 7.22156776 7.22156776 7.22156776 7.22156776 7.22156776 7.22156776 7.22156776 7.22156776 7.22156776 7.22156776 7.22156776 7.22156776 7.22156776 7.22156776 7.22156776 7.22156776 7.22156776 7.22156776 7.22156776 7.22156776 7.22156776 7.22156776 7.22156776 7.22156776 7.22156776 7.22156776 7.22156776 7.22156776 7.22156776 7.22156776 7.22156776 7.22156776 7.22156776 7.22156776 7.22156776 7.22156776 7.22156776 7.22156776 7.22156776 7.22156776 7.22156776 7.22156776 7.22156776 7.22156776 7.22156776 7.22156776 7.22156776 7.22156776 7.22156776 7.22156776 7.22156776 7.22156776 7.22156776 7.22156776 7.22156776 7.22156776 7.22156776 7.22156776 7.22156776 7.22156776 7.22156776 7.22156776 