# vtk DataFile Version 3.0
VTK - Matlab export
ASCII
DATASET STRUCTURED_POINTS
DIMENSIONS 40 40 1
SPACING 1 1 1
ORIGIN 0 0 0
POINT_DATA 1600
SCALARS Temperature float 1
LOOKUP_TABLE default
300.00000000 300.00000000 300.00000000 300.00000000 300.00000000 300.00000000 300.00000000 300.00000000 300.00000000 300.00000000 300.00000000 300.00000000 300.00000000 300.00000000 300.00000000 300.00000000 300.00000000 300.00000000 300.00000000 300.00000000 300.00000000 300.00000000 300.00000000 300.00000000 300.00000000 300.00000000 300.00000000 300.00000000 300.00000000 300.00000000 300.00000000 300.00000000 300.00000000 300.00000000 300.00000000 300.00000000 300.00000000 300.00000000 300.00000000 300.00000000 300.00000000 300.00000000 300.00000000 300.00000000 300.00000000 300.00000000 300.00000000 300.00000000 300.00000000 300.00000000 300.00000000 300.00000000 300.00000000 300.00000000 300.00000000 300.00000000 300.00000000 300.00000000 300.00000000 300.00000000 300.00000000 300.00000000 300.00000000 300.00000000 300.00000000 300.00000000 300.00000000 300.00000000 300.00000000 300.00000000 300.00000000 300.00000000 300.00000000 300.00000000 300.00000000 300.00000000 300.00000000 300.00000000 300.00000000 300.00000000 300.00000000 300.00000000 300.00000000 300.00000000 300.00000000 300.00000000 300.00000000 300.00000000 300.00000000 300.00000000 300.00000000 300.00000000 300.00000000 300.00000000 300.00000000 300.00000000 300.00000000 300.00000000 300.00000000 300.00000000 300.00000000 300.00000000 300.00000000 300.00000000 300.00000000 300.00000000 300.00000000 300.00000000 300.00000000 300.00000000 300.00000000 300.00000000 300.00000000 300.00000000 300.00000000 300.00000000 300.00000000 300.00000000 300.00000000 300.00000000 300.00000000 300.00000000 300.00000000 300.00000000 300.00000000 300.00000000 300.00000000 300.00000000 300.00000000 300.00000000 300.00000000 300.00000000 300.00000000 300.00000000 300.00000000 300.00000000 300.00000000 300.00000000 300.00000000 300.00000000 300.00000000 300.00000000 300.00000000 300.00000000 300.00000000 300.00000000 300.00000000 300.00000000 300.00000000 300.00000000 300.00000000 300.00000000 300.00000000 300.00000000 300.00000000 300.00000000 300.00000000 300.00000000 300.00000000 300.00000000 300.00000000 300.00000000 300.00000000 300.00000000 300.00000000 300.00000000 300.00000000 300.00000000 300.00000000 300.00000000 300.00000000 300.00000000 300.00000000 300.00000000 300.00000000 300.00000000 300.00000000 300.00000000 300.00000000 300.00000000 300.00000000 300.00000000 300.00000000 300.00000000 300.00000000 300.00000000 300.00000000 300.00000000 300.00000000 300.00000000 300.00000000 300.00000000 300.00000000 300.00000000 300.00000000 300.00000000 300.00000000 300.00000000 300.00000000 300.00000000 300.00000000 300.00000000 300.00000000 300.00000000 300.00000000 300.00000000 300.00000000 300.00000000 300.00000000 300.00000000 300.00000000 300.00000000 300.00000000 300.00000000 300.00000000 300.00000000 300.00000000 300.00000000 300.00000000 300.00000000 300.00000000 300.00000000 300.00000000 300.00000000 300.00000000 300.00000000 300.00000000 300.00000000 300.00000000 300.00000000 300.00000000 300.00000000 300.00000000 300.00000000 300.00000000 300.00000000 300.00000000 300.00000000 300.00000000 300.00000000 300.00000000 300.00000000 300.00000000 300.00000000 300.00000000 300.00000000 300.00000000 300.00000000 300.00000000 300.00000000 300.00000000 300.00000000 300.00000000 300.00000000 300.00000000 300.00000000 300.00000000 300.00000000 300.00000000 300.00000000 300.00000000 300.00000000 300.00000000 300.00000000 300.00000000 300.00000000 300.00000000 300.00000000 300.00000000 300.00000000 300.00000000 300.00000000 300.00000000 300.00000000 300.00000000 300.00000000 300.00000000 300.00000000 300.00000000 300.00000000 300.00000000 300.00000000 300.00000000 300.00000000 300.00000000 300.00000000 300.00000000 300.00000000 300.00000000 300.00000000 300.00000000 300.00000000 300.00000000 300.00000000 300.00000000 300.00000000 300.00000000 300.00000000 300.00000000 300.00000000 300.00000000 300.00000000 300.00000000 300.00000000 300.00000000 300.00000000 300.00000000 300.00000000 300.00000000 300.00000000 300.00000000 300.00000000 300.00000000 300.00000000 300.00000000 300.00000000 300.00000000 300.00000000 300.00000000 300.00000000 300.00000000 300.00000000 300.00000000 300.00000000 300.00000000 300.00000000 300.00000000 300.00000000 300.00000000 300.00000000 300.00000000 300.00000000 300.00000000 300.00000000 300.00000000 300.00000000 300.00000000 312.14507495 318.66661407 321.05518394 321.05518394 318.66661407 312.14507495 300.00000000 300.00000000 300.00000000 300.00000000 300.00000000 300.00000000 300.00000000 300.00000000 300.00000000 300.00000000 300.00000000 300.00000000 300.00000000 300.00000000 300.00000000 300.00000000 300.00000000 300.00000000 300.00000000 300.00000000 300.00000000 300.00000000 300.00000000 300.00000000 300.00000000 300.00000000 300.00000000 300.00000000 300.00000000 311.90295366 321.15933574 327.14453345 331.45231306 335.43672826 341.51326220 346.37099394 348.71805754 348.71805754 346.37099394 341.51326220 335.43672826 331.45231306 327.14453345 321.15933574 311.90295366 300.00000000 300.00000000 300.00000000 300.00000000 300.00000000 300.00000000 300.00000000 300.00000000 300.00000000 300.00000000 300.00000000 300.00000000 300.00000000 300.00000000 300.00000000 300.00000000 300.00000000 300.00000000 300.00000000 300.00000000 300.00000000 300.00000000 316.76122270 326.91729010 337.75519249 348.15887399 356.68244549 363.52121923 369.28322024 374.54791534 378.56999289 380.65930453 380.65930453 378.56999289 374.54791534 369.28322024 363.52121923 356.68244549 348.15887399 337.75519249 326.91729010 316.76122270 300.00000000 300.00000000 300.00000000 300.00000000 300.00000000 300.00000000 300.00000000 300.00000000 300.00000000 300.00000000 300.00000000 300.00000000 300.00000000 300.00000000 300.00000000 300.00000000 300.00000000 300.00000000 314.61626252 326.12367083 340.62239097 353.77666328 366.20789168 377.75334305 387.77851449 396.14865181 403.01291433 408.49936794 412.39040144 414.39798676 414.39798676 412.39040144 408.49936794 403.01291433 396.14865181 387.77851449 377.75334305 366.20789168 353.77666328 340.62239097 326.12367083 314.61626252 300.00000000 300.00000000 300.00000000 300.00000000 300.00000000 300.00000000 300.00000000 300.00000000 300.00000000 300.00000000 300.00000000 300.00000000 300.00000000 300.00000000 300.00000000 317.79935749 334.31538969 350.02124469 365.95858089 381.08709295 395.15529634 407.94138389 419.12078628 428.53440567 436.16922626 442.03065684 446.03626670 448.07090958 448.07090958 446.03626670 442.03065684 436.16922626 428.53440567 419.12078628 407.94138389 395.15529634 381.08709295 365.95858089 350.02124469 334.31538969 317.79935749 300.00000000 300.00000000 300.00000000 300.00000000 300.00000000 300.00000000 300.00000000 300.00000000 300.00000000 300.00000000 300.00000000 300.00000000 307.96491642 320.24505104 337.41652385 355.49118550 373.52384913 391.21049082 407.97704657 423.44664647 437.34645331 449.44534802 459.60816590 467.78774440 473.96927655 478.12395121 480.21319833 480.21319833 478.12395121 473.96927655 467.78774440 459.60816590 449.44534802 437.34645331 423.44664647 407.97704657 391.21049082 373.52384913 355.49118550 337.41652385 320.24505104 307.96491642 300.00000000 300.00000000 300.00000000 300.00000000 300.00000000 300.00000000 300.00000000 300.00000000 300.00000000 300.00000000 319.04361683 336.97238267 356.22673823 376.13015564 395.98864453 415.24858290 433.38504013 449.99658772 464.79819524 477.59577967 488.28381811 496.82741909 503.22776409 507.49226778 509.62414068 509.62414068 507.49226778 503.22776409 496.82741909 488.28381811 477.59577967 464.79819524 449.99658772 433.38504013 415.24858290 395.98864453 376.13015564 356.22673823 336.97238267 319.04361683 300.00000000 300.00000000 300.00000000 300.00000000 300.00000000 300.00000000 300.00000000 300.00000000 300.00000000 314.38943896 332.58899608 352.44654002 373.49888954 395.06563177 416.45116238 437.03246353 456.27752526 473.77990463 489.26090751 502.55344230 513.58338487 522.34389955 528.86454050 533.18438613 535.33554078 535.33554078 533.18438613 528.86454050 522.34389955 513.58338487 502.55344230 489.26090751 473.77990463 456.27752526 437.03246353 416.45116238 395.06563177 373.49888954 352.44654002 332.58899608 314.38943896 300.00000000 300.00000000 300.00000000 300.00000000 300.00000000 300.00000000 300.00000000 309.82421223 325.36693633 344.54710765 365.87095106 388.41576216 411.37431793 434.00011749 455.63425876 475.73440769 493.89644667 509.85566768 523.47088790 534.69930423 543.56566028 550.12999938 554.45970824 556.60951072 556.60951072 554.45970824 550.12999938 543.56566028 534.69930423 523.47088790 509.85566768 493.89644667 475.73440769 455.63425876 434.00011749 411.37431793 388.41576216 365.87095106 344.54710765 325.36693633 309.82421223 300.00000000 300.00000000 300.00000000 300.00000000 300.00000000 300.00000000 315.24672102 333.21582160 353.88428769 376.50705464 400.25176574 424.29466590 447.86329010 470.27981817 490.99635561 509.61456093 525.88534822 539.69123874 551.01742624 559.91732270 566.47800767 570.79036523 572.92675124 572.92675124 570.79036523 566.47800767 559.91732270 551.01742624 539.69123874 525.88534822 509.61456093 490.99635561 470.27981817 447.86329010 424.29466590 400.25176574 376.50705464 353.88428769 333.21582160 315.24672102 300.00000000 300.00000000 300.00000000 300.00000000 300.00000000 300.00000000 318.67078139 338.43008754 360.28030633 383.86317212 408.45302456 433.24005686 457.44316621 480.37592556 501.48879427 520.38954183 536.84209378 550.74724484 562.11129309 571.00915101 577.54787755 581.83523296 583.95587132 583.95587132 581.83523296 577.54787755 571.00915101 562.11129309 550.74724484 536.84209378 520.38954183 501.48879427 480.37592556 457.44316621 433.24005686 408.45302456 383.86317212 360.28030633 338.43008754 318.67078139 300.00000000 300.00000000 300.00000000 300.00000000 300.00000000 305.45380922 321.42005529 341.25336551 363.57057047 387.62810199 412.64861034 437.81322792 462.33504877 485.52384495 506.82988151 525.86471792 542.39960904 556.34530090 567.71943132 576.60839506 583.12983135 587.40032306 589.51086941 589.51086941 587.40032306 583.12983135 576.60839506 567.71943132 556.34530090 542.39960904 525.86471792 506.82988151 485.52384495 462.33504877 437.81322792 412.64861034 387.62810199 363.57057047 341.25336551 321.42005529 305.45380922 300.00000000 300.00000000 300.00000000 300.00000000 305.45380922 321.42005529 341.25336551 363.57057047 387.62810199 412.64861034 437.81322792 462.33504877 485.52384495 506.82988151 525.86471792 542.39960904 556.34530090 567.71943132 576.60839506 583.12983135 587.40032306 589.51086941 589.51086941 587.40032306 583.12983135 576.60839506 567.71943132 556.34530090 542.39960904 525.86471792 506.82988151 485.52384495 462.33504877 437.81322792 412.64861034 387.62810199 363.57057047 341.25336551 321.42005529 305.45380922 300.00000000 300.00000000 300.00000000 300.00000000 300.00000000 318.67078139 338.43008754 360.28030633 383.86317212 408.45302456 433.24005686 457.44316621 480.37592556 501.48879427 520.38954183 536.84209378 550.74724484 562.11129309 571.00915101 577.54787755 581.83523296 583.95587132 583.95587132 581.83523296 577.54787755 571.00915101 562.11129309 550.74724484 536.84209378 520.38954183 501.48879427 480.37592556 457.44316621 433.24005686 408.45302456 383.86317212 360.28030633 338.43008754 318.67078139 300.00000000 300.00000000 300.00000000 300.00000000 300.00000000 300.00000000 315.24672102 333.21582160 353.88428769 376.50705464 400.25176574 424.29466590 447.86329010 470.27981817 490.99635561 509.61456093 525.88534822 539.69123874 551.01742624 559.91732270 566.47800767 570.79036523 572.92675124 572.92675124 570.79036523 566.47800767 559.91732270 551.01742624 539.69123874 525.88534822 509.61456093 490.99635561 470.27981817 447.86329010 424.29466590 400.25176574 376.50705464 353.88428769 333.21582160 315.24672102 300.00000000 300.00000000 300.00000000 300.00000000 300.00000000 300.00000000 309.82421223 325.36693633 344.54710765 365.87095106 388.41576216 411.37431793 434.00011749 455.63425876 475.73440769 493.89644667 509.85566768 523.47088790 534.69930423 543.56566028 550.12999938 554.45970824 556.60951072 556.60951072 554.45970824 550.12999938 543.56566028 534.69930423 523.47088790 509.85566768 493.89644667 475.73440769 455.63425876 434.00011749 411.37431793 388.41576216 365.87095106 344.54710765 325.36693633 309.82421223 300.00000000 300.00000000 300.00000000 300.00000000 300.00000000 300.00000000 300.00000000 314.38943896 332.58899608 352.44654002 373.49888954 395.06563177 416.45116238 437.03246353 456.27752526 473.77990463 489.26090751 502.55344230 513.58338487 522.34389955 528.86454050 533.18438613 535.33554078 535.33554078 533.18438613 528.86454050 522.34389955 513.58338487 502.55344230 489.26090751 473.77990463 456.27752526 437.03246353 416.45116238 395.06563177 373.49888954 352.44654002 332.58899608 314.38943896 300.00000000 300.00000000 300.00000000 300.00000000 300.00000000 300.00000000 300.00000000 300.00000000 300.00000000 319.04361683 336.97238267 356.22673823 376.13015564 395.98864453 415.24858290 433.38504013 449.99658772 464.79819524 477.59577967 488.28381811 496.82741909 503.22776409 507.49226778 509.62414068 509.62414068 507.49226778 503.22776409 496.82741909 488.28381811 477.59577967 464.79819524 449.99658772 433.38504013 415.24858290 395.98864453 376.13015564 356.22673823 336.97238267 319.04361683 300.00000000 300.00000000 300.00000000 300.00000000 300.00000000 300.00000000 300.00000000 300.00000000 300.00000000 300.00000000 307.96491642 320.24505104 337.41652385 355.49118550 373.52384913 391.21049082 407.97704657 423.44664647 437.34645331 449.44534802 459.60816590 467.78774440 473.96927655 478.12395121 480.21319833 480.21319833 478.12395121 473.96927655 467.78774440 459.60816590 449.44534802 437.34645331 423.44664647 407.97704657 391.21049082 373.52384913 355.49118550 337.41652385 320.24505104 307.96491642 300.00000000 300.00000000 300.00000000 300.00000000 300.00000000 300.00000000 300.00000000 300.00000000 300.00000000 300.00000000 300.00000000 300.00000000 317.79935749 334.31538969 350.02124469 365.95858089 381.08709295 395.15529634 407.94138389 419.12078628 428.53440567 436.16922626 442.03065684 446.03626670 448.07090958 448.07090958 446.03626670 442.03065684 436.16922626 428.53440567 419.12078628 407.94138389 395.15529634 381.08709295 365.95858089 350.02124469 334.31538969 317.79935749 300.00000000 300.00000000 300.00000000 300.00000000 300.00000000 300.00000000 300.00000000 300.00000000 300.00000000 300.00000000 300.00000000 300.00000000 300.00000000 300.00000000 300.00000000 314.61626252 326.12367083 340.62239097 353.77666328 366.20789168 377.75334305 387.77851449 396.14865181 403.01291433 408.49936794 412.39040144 414.39798676 414.39798676 412.39040144 408.49936794 403.01291433 396.14865181 387.77851449 377.75334305 366.20789168 353.77666328 340.62239097 326.12367083 314.61626252 300.00000000 300.00000000 300.00000000 300.00000000 300.00000000 300.00000000 300.00000000 300.00000000 300.00000000 300.00000000 300.00000000 300.00000000 300.00000000 300.00000000 300.00000000 300.00000000 300.00000000 300.00000000 316.76122270 326.91729010 337.75519249 348.15887399 356.68244549 363.52121923 369.28322024 374.54791534 378.56999289 380.65930453 380.65930453 378.56999289 374.54791534 369.28322024 363.52121923 356.68244549 348.15887399 337.75519249 326.91729010 316.76122270 300.00000000 300.00000000 300.00000000 300.00000000 300.00000000 300.00000000 300.00000000 300.00000000 300.00000000 300.00000000 300.00000000 300.00000000 300.00000000 300.00000000 300.00000000 300.00000000 300.00000000 300.00000000 300.00000000 300.00000000 300.00000000 300.00000000 311.90295366 321.15933574 327.14453345 331.45231306 335.43672826 341.51326220 346.37099394 348.71805754 348.71805754 346.37099394 341.51326220 335.43672826 331.45231306 327.14453345 321.15933574 311.90295366 300.00000000 300.00000000 300.00000000 300.00000000 300.00000000 300.00000000 300.00000000 300.00000000 300.00000000 300.00000000 300.00000000 300.00000000 300.00000000 300.00000000 300.00000000 300.00000000 300.00000000 300.00000000 300.00000000 300.00000000 300.00000000 300.00000000 300.00000000 300.00000000 300.00000000 300.00000000 300.00000000 300.00000000 300.00000000 312.14507495 318.66661407 321.05518394 321.05518394 318.66661407 312.14507495 300.00000000 300.00000000 300.00000000 300.00000000 300.00000000 300.00000000 300.00000000 300.00000000 300.00000000 300.00000000 300.00000000 300.00000000 300.00000000 300.00000000 300.00000000 300.00000000 300.00000000 300.00000000 300.00000000 300.00000000 300.00000000 300.00000000 300.00000000 300.00000000 300.00000000 300.00000000 300.00000000 300.00000000 300.00000000 300.00000000 300.00000000 300.00000000 300.00000000 300.00000000 300.00000000 300.00000000 300.00000000 300.00000000 300.00000000 300.00000000 300.00000000 300.00000000 300.00000000 300.00000000 300.00000000 300.00000000 300.00000000 300.00000000 300.00000000 300.00000000 300.00000000 300.00000000 300.00000000 300.00000000 300.00000000 300.00000000 300.00000000 300.00000000 300.00000000 300.00000000 300.00000000 300.00000000 300.00000000 300.00000000 300.00000000 300.00000000 300.00000000 300.00000000 300.00000000 300.00000000 300.00000000 300.00000000 300.00000000 300.00000000 300.00000000 300.00000000 300.00000000 300.00000000 300.00000000 300.00000000 300.00000000 300.00000000 300.00000000 300.00000000 300.00000000 300.00000000 300.00000000 300.00000000 300.00000000 300.00000000 300.00000000 300.00000000 300.00000000 300.00000000 300.00000000 300.00000000 300.00000000 300.00000000 300.00000000 300.00000000 300.00000000 300.00000000 300.00000000 300.00000000 300.00000000 300.00000000 300.00000000 300.00000000 300.00000000 300.00000000 300.00000000 300.00000000 300.00000000 300.00000000 300.00000000 300.00000000 300.00000000 300.00000000 300.00000000 300.00000000 300.00000000 300.00000000 300.00000000 300.00000000 300.00000000 300.00000000 300.00000000 300.00000000 300.00000000 300.00000000 300.00000000 300.00000000 300.00000000 300.00000000 300.00000000 300.00000000 300.00000000 300.00000000 300.00000000 300.00000000 300.00000000 300.00000000 300.00000000 300.00000000 300.00000000 300.00000000 300.00000000 300.00000000 300.00000000 300.00000000 300.00000000 300.00000000 300.00000000 300.00000000 300.00000000 300.00000000 300.00000000 300.00000000 300.00000000 300.00000000 300.00000000 300.00000000 300.00000000 300.00000000 300.00000000 300.00000000 300.00000000 300.00000000 300.00000000 300.00000000 300.00000000 300.00000000 300.00000000 300.00000000 300.00000000 300.00000000 300.00000000 300.00000000 300.00000000 300.00000000 300.00000000 300.00000000 300.00000000 300.00000000 300.00000000 300.00000000 300.00000000 300.00000000 300.00000000 300.00000000 300.00000000 300.00000000 300.00000000 300.00000000 300.00000000 300.00000000 300.00000000 300.00000000 300.00000000 300.00000000 300.00000000 300.00000000 300.00000000 300.00000000 300.00000000 300.00000000 300.00000000 300.00000000 300.00000000 300.00000000 300.00000000 300.00000000 300.00000000 300.00000000 300.00000000 300.00000000 300.00000000 300.00000000 300.00000000 300.00000000 300.00000000 300.00000000 300.00000000 300.00000000 300.00000000 300.00000000 300.00000000 300.00000000 300.00000000 300.00000000 300.00000000 300.00000000 300.00000000 300.00000000 300.00000000 300.00000000 300.00000000 300.00000000 300.00000000 300.00000000 300.00000000 300.00000000 300.00000000 300.00000000 300.00000000 300.00000000 300.00000000 300.00000000 300.00000000 300.00000000 300.00000000 300.00000000 300.00000000 300.00000000 300.00000000 300.00000000 300.00000000 300.00000000 300.00000000 300.00000000 300.00000000 300.00000000 300.00000000 300.00000000 300.00000000 300.00000000 300.00000000 300.00000000 300.00000000 300.00000000 300.00000000 300.00000000 300.00000000 300.00000000 300.00000000 300.00000000 300.00000000 300.00000000 300.00000000 300.00000000 300.00000000 300.00000000 300.00000000 300.00000000 300.00000000 300.00000000 300.00000000 300.00000000 300.00000000 300.00000000 300.00000000 300.00000000 300.00000000 300.00000000 300.00000000 300.00000000 300.00000000 300.00000000 300.00000000 300.00000000 300.00000000 300.00000000 300.00000000 300.00000000 300.00000000 300.00000000 300.00000000 300.00000000 300.00000000 300.00000000 300.00000000 300.00000000 300.00000000 300.00000000 300.00000000 300.00000000 300.00000000 300.00000000 300.00000000 300.00000000 300.00000000 300.00000000 300.00000000 300.00000000 300.00000000 300.00000000 300.00000000 300.00000000 300.00000000 300.00000000 300.00000000 300.00000000 300.00000000 300.00000000 300.00000000 300.00000000 300.00000000 