# vtk DataFile Version 3.0
VTK - Matlab export
ASCII
DATASET STRUCTURED_POINTS
DIMENSIONS 40 40 1
SPACING 1 1 1
ORIGIN 0 0 0
POINT_DATA 1600
SCALARS Proofstrength float 1
LOOKUP_TABLE default
142.25514280 142.25514280 142.25514280 142.25514280 142.25514280 142.25514280 142.25514280 142.25514280 142.25514280 142.25514280 142.25514280 142.25514280 142.25514280 142.25514280 142.25514280 142.25514280 142.25514280 142.25514280 142.25514280 142.25514280 142.25514280 142.25514280 142.25514280 142.25514280 142.25514280 142.25514280 142.25514280 142.25514280 142.25514280 142.25514280 142.25514280 142.25514280 142.25514280 142.25514280 142.25514280 142.25514280 142.25514280 142.25514280 142.25514280 142.25514280 142.25514280 142.25514280 142.25514280 142.25514280 142.25514280 142.25514280 142.25514280 142.25514280 142.25514280 142.25514280 142.25514280 142.25514280 142.25514280 142.25514280 142.25514280 142.25514280 142.25514280 142.25514280 142.25514280 142.25514280 142.25514280 142.25514280 142.25514280 142.25514280 142.25514280 142.25514280 142.25514280 142.25514280 142.25514280 142.25514280 142.25514280 142.25514280 142.25514280 142.25514280 142.25514280 142.25514280 142.25514280 142.25514280 142.25514280 142.25514280 142.25514280 142.25514280 142.25514280 142.25514280 142.25514280 142.25514280 142.25514280 142.25514280 142.25514280 142.25514280 142.25514280 142.25514280 142.25514280 142.25514280 142.25514280 142.25514280 142.25514280 142.25514280 142.25514280 142.25514280 142.25514280 142.25514280 142.25514280 142.25514280 142.25514280 142.25514280 142.25514280 142.25514280 142.25514280 142.25514280 142.25514280 142.25514280 142.25514280 142.25514280 142.25514280 142.25514280 142.25514280 142.25514280 142.25514280 142.25514280 142.25514280 142.25514280 142.25514280 142.25514280 142.25514280 142.25514280 142.25514280 142.25514280 142.25514280 142.25514280 142.25514280 142.25514280 142.25514280 142.25514280 142.25514280 142.25514280 142.25514280 142.25514280 142.25514280 142.25514280 142.25514280 142.25514280 142.25514280 142.25514280 142.25514280 142.25514280 142.25514280 142.25514280 142.25514280 142.25514280 142.25514280 142.25514280 142.25514280 142.25514280 142.25514280 142.25514280 142.25514280 142.25514280 142.25514280 142.25514280 142.25514280 142.25514280 142.25514280 142.25514280 142.25514280 142.25514280 142.25514280 142.25514280 142.25514280 142.25514280 142.25514280 142.25514280 142.25514280 142.25514280 142.25514280 142.25514280 142.25514280 142.25514280 142.25514280 142.25514280 142.25514280 142.25514280 142.25514280 142.25514280 142.25514280 142.25514280 142.25514280 142.25514280 142.25514280 142.25514280 142.25514280 142.25514280 142.25514280 142.25514280 142.25514280 142.25514280 142.25514280 142.25514280 142.25514280 142.25514280 142.25514280 142.25514280 142.25514280 142.25514280 142.25514280 142.25514280 142.25514280 142.25514280 142.25514280 142.25514280 142.25514280 142.25514280 142.25514280 142.25514280 142.25514280 142.25514280 142.25514280 142.25514280 142.25514280 142.25514280 142.25514280 142.25514280 142.25514280 142.25514280 142.25514280 142.25514280 142.25514280 142.25514280 142.25514280 142.25514280 142.25514280 142.25514280 142.25514280 142.25514280 142.25514280 142.25514280 142.25514280 142.25514280 142.25514280 142.25514280 142.25514280 142.25514280 142.25514280 142.25514280 142.25514280 142.25514280 142.25514280 142.25514280 142.25514280 142.25514280 142.25514280 142.25514280 142.25514280 142.25514280 142.25514280 142.25514280 142.25514280 142.25514280 142.25514280 142.25514280 142.25514280 142.25514280 142.25514280 142.25514280 142.25514280 142.25514280 142.25514280 142.25514280 142.25514280 142.25514280 142.25514280 142.25514280 142.25514280 142.25514280 142.25514280 142.25514280 142.25514280 142.25514280 142.25514280 142.25514280 142.25514280 142.25514280 142.25514280 142.25514280 142.25514280 142.25514280 142.25514280 142.25514280 142.25514280 142.25514280 142.25514280 142.25514280 142.25514280 142.25514280 142.25514280 142.25514280 142.25514280 142.25514280 142.25514280 142.25514280 142.25514280 142.25514280 142.25514280 142.25514280 142.25514280 142.25514280 142.25514280 142.25514280 142.25514280 142.25514280 142.25514280 142.25514280 142.25514280 142.25514280 142.25514280 142.25514280 142.25514280 142.25514280 142.25514280 142.25514280 142.25514280 142.25514280 142.25514280 142.25514280 142.25514280 142.25514280 142.25514280 142.25514280 142.25514280 142.25514280 142.25514280 142.25514280 142.25514280 142.25514280 142.25514280 142.25514280 142.25514280 142.32808045 142.37899402 142.39428134 142.39428134 142.37899402 142.32808045 142.25514280 142.25514280 142.25514280 142.25514280 142.25514280 142.25514280 142.25514280 142.25514280 142.25514280 142.25514280 142.25514280 142.25514280 142.25514280 142.25514280 142.25514280 142.25514280 142.25514280 142.25514280 142.25514280 142.25514280 142.25514280 142.25514280 142.25514280 142.25514280 142.25514280 142.25514280 142.25514280 142.25514280 142.25514280 142.32720343 142.37621427 142.38352953 142.37422340 142.36988397 142.39073847 142.40572601 142.40451440 142.40451440 142.40572601 142.39073847 142.36988397 142.37422340 142.38352953 142.37621427 142.32720343 142.25514280 142.25514280 142.25514280 142.25514280 142.25514280 142.25514280 142.25514280 142.25514280 142.25514280 142.25514280 142.25514280 142.25514280 142.25514280 142.25514280 142.25514280 142.25514280 142.25514280 142.25514280 142.25514280 142.25514280 142.25514280 142.25514280 142.35245661 142.37923127 142.39377149 142.39557442 142.37853659 142.36031436 142.34854705 142.34356451 142.33617117 142.32798878 142.32798878 142.33617117 142.34356451 142.34854705 142.36031436 142.37853659 142.39557442 142.39377149 142.37923127 142.35245661 142.25514280 142.25514280 142.25514280 142.25514280 142.25514280 142.25514280 142.25514280 142.25514280 142.25514280 142.25514280 142.25514280 142.25514280 142.25514280 142.25514280 142.25514280 142.25514280 142.25514280 142.25514280 142.34982378 142.37809897 142.39566301 142.37692935 142.35154756 142.32911837 142.31007773 142.29858764 142.29180162 142.28612546 142.27984242 142.27545922 142.27545922 142.27984242 142.28612546 142.29180162 142.29858764 142.31007773 142.32911837 142.35154756 142.37692935 142.39566301 142.37809897 142.34982378 142.25514280 142.25514280 142.25514280 142.25514280 142.25514280 142.25514280 142.25514280 142.25514280 142.25514280 142.25514280 142.25514280 142.25514280 142.25514280 142.25514280 142.25514280 142.35330230 142.39910117 142.38085535 142.34696847 142.31369247 142.29128605 142.27745864 142.26935615 142.26575356 142.26384374 142.26189653 142.25986688 142.25868996 142.25868996 142.25986688 142.26189653 142.26384374 142.26575356 142.26935615 142.27745864 142.29128605 142.31369247 142.34696847 142.38085535 142.39910117 142.35330230 142.25514280 142.25514280 142.25514280 142.25514280 142.25514280 142.25514280 142.25514280 142.25514280 142.25514280 142.25514280 142.25514280 142.25514280 142.32525261 142.37485301 142.39333880 142.36699884 142.32284814 142.29013845 142.27191324 142.26344541 142.25936634 142.25746732 142.25681891 142.25650469 142.25611763 142.25573105 142.25554158 142.25554158 142.25573105 142.25611763 142.25650469 142.25681891 142.25746732 142.25936634 142.26344541 142.27191324 142.29013845 142.32284814 142.36699884 142.39333880 142.37485301 142.32525261 142.25514280 142.25514280 142.25514280 142.25514280 142.25514280 142.25514280 142.25514280 142.25514280 142.25514280 142.25514280 142.37504679 142.39470044 142.35616313 142.30919206 142.27807953 142.26363398 142.25819581 142.25637056 142.25566035 142.25538937 142.25532027 142.25528816 142.25523748 142.25518997 142.25517119 142.25517119 142.25518997 142.25523748 142.25528816 142.25532027 142.25538937 142.25566035 142.25637056 142.25819581 142.26363398 142.27807953 142.30919206 142.35616313 142.39470044 142.37504679 142.25514280 142.25514280 142.25514280 142.25514280 142.25514280 142.25514280 142.25514280 142.25514280 142.25514280 142.35544524 142.39462669 142.35653863 142.30457303 142.27309985 142.26038175 142.25649441 142.25549996 142.25526069 142.25518342 142.25515956 142.25515546 142.25515339 142.25514885 142.25514507 142.25514400 142.25514400 142.25514507 142.25514885 142.25515339 142.25515546 142.25515956 142.25518342 142.25526069 142.25549996 142.25649441 142.26038175 142.27309985 142.30457303 142.35653863 142.39462669 142.35544524 142.25514280 142.25514280 142.25514280 142.25514280 142.25514280 142.25514280 142.25514280 142.35633615 142.40757856 142.37150158 142.31051267 142.27333088 142.25953853 142.25597828 142.25528304 142.25516895 142.25514999 142.25514471 142.25514350 142.25514339 142.25514331 142.25514304 142.25514285 142.25514283 142.25514283 142.25514285 142.25514304 142.25514331 142.25514339 142.25514350 142.25514471 142.25514999 142.25516895 142.25528304 142.25597828 142.25953853 142.27333088 142.31051267 142.37150158 142.40757856 142.35633615 142.25514280 142.25514280 142.25514280 142.25514280 142.25514280 142.25514280 142.38770881 142.39908929 142.33302912 142.28104500 142.26090256 142.25603354 142.25524291 142.25515219 142.25514393 142.25514306 142.25514285 142.25514282 142.25514282 142.25514282 142.25514281 142.25514280 142.25514280 142.25514280 142.25514280 142.25514281 142.25514282 142.25514282 142.25514282 142.25514285 142.25514306 142.25514393 142.25515219 142.25524291 142.25603354 142.26090256 142.28104500 142.33302912 142.39908929 142.38770881 142.25514280 142.25514280 142.25514280 142.25514280 142.25514280 142.25514280 142.39023858 142.37507191 142.30665212 142.26835198 142.25731725 142.25537681 142.25515924 142.25514359 142.25514284 142.25514281 142.25514280 142.25514280 142.25514280 142.25514280 142.25514280 142.25514280 142.25514280 142.25514280 142.25514280 142.25514280 142.25514280 142.25514280 142.25514280 142.25514280 142.25514281 142.25514284 142.25514359 142.25515924 142.25537681 142.25731725 142.26835198 142.30665212 142.37507191 142.39023858 142.25514280 142.25514280 142.25514280 142.25514280 142.25514280 142.32171442 142.41052302 142.36765106 142.29698059 142.26449038 142.25648037 142.25526736 142.25515022 142.25514307 142.25514281 142.25514280 142.25514280 142.25514280 142.25514280 142.25514280 142.25514280 142.25514280 142.25514280 142.25514280 142.25514280 142.25514280 142.25514280 142.25514280 142.25514280 142.25514280 142.25514280 142.25514281 142.25514307 142.25515022 142.25526736 142.25648037 142.26449038 142.29698059 142.36765106 142.41052302 142.32171442 142.25514280 142.25514280 142.25514280 142.25514280 142.32171442 142.41052302 142.36765106 142.29698059 142.26449038 142.25648037 142.25526736 142.25515022 142.25514307 142.25514281 142.25514280 142.25514280 142.25514280 142.25514280 142.25514280 142.25514280 142.25514280 142.25514280 142.25514280 142.25514280 142.25514280 142.25514280 142.25514280 142.25514280 142.25514280 142.25514280 142.25514281 142.25514307 142.25515022 142.25526736 142.25648037 142.26449038 142.29698059 142.36765106 142.41052302 142.32171442 142.25514280 142.25514280 142.25514280 142.25514280 142.25514280 142.39023858 142.37507191 142.30665212 142.26835198 142.25731725 142.25537681 142.25515924 142.25514359 142.25514284 142.25514281 142.25514280 142.25514280 142.25514280 142.25514280 142.25514280 142.25514280 142.25514280 142.25514280 142.25514280 142.25514280 142.25514280 142.25514280 142.25514280 142.25514280 142.25514281 142.25514284 142.25514359 142.25515924 142.25537681 142.25731725 142.26835198 142.30665212 142.37507191 142.39023858 142.25514280 142.25514280 142.25514280 142.25514280 142.25514280 142.25514280 142.38770881 142.39908929 142.33302912 142.28104500 142.26090256 142.25603354 142.25524291 142.25515219 142.25514393 142.25514306 142.25514285 142.25514282 142.25514282 142.25514282 142.25514281 142.25514280 142.25514280 142.25514280 142.25514280 142.25514281 142.25514282 142.25514282 142.25514282 142.25514285 142.25514306 142.25514393 142.25515219 142.25524291 142.25603354 142.26090256 142.28104500 142.33302912 142.39908929 142.38770881 142.25514280 142.25514280 142.25514280 142.25514280 142.25514280 142.25514280 142.35633615 142.40757856 142.37150158 142.31051267 142.27333088 142.25953853 142.25597828 142.25528304 142.25516895 142.25514999 142.25514471 142.25514350 142.25514339 142.25514331 142.25514304 142.25514285 142.25514283 142.25514283 142.25514285 142.25514304 142.25514331 142.25514339 142.25514350 142.25514471 142.25514999 142.25516895 142.25528304 142.25597828 142.25953853 142.27333088 142.31051267 142.37150158 142.40757856 142.35633615 142.25514280 142.25514280 142.25514280 142.25514280 142.25514280 142.25514280 142.25514280 142.35544524 142.39462669 142.35653863 142.30457303 142.27309985 142.26038175 142.25649441 142.25549996 142.25526069 142.25518342 142.25515956 142.25515546 142.25515339 142.25514885 142.25514507 142.25514400 142.25514400 142.25514507 142.25514885 142.25515339 142.25515546 142.25515956 142.25518342 142.25526069 142.25549996 142.25649441 142.26038175 142.27309985 142.30457303 142.35653863 142.39462669 142.35544524 142.25514280 142.25514280 142.25514280 142.25514280 142.25514280 142.25514280 142.25514280 142.25514280 142.25514280 142.37504679 142.39470044 142.35616313 142.30919206 142.27807953 142.26363398 142.25819581 142.25637056 142.25566035 142.25538937 142.25532027 142.25528816 142.25523748 142.25518997 142.25517119 142.25517119 142.25518997 142.25523748 142.25528816 142.25532027 142.25538937 142.25566035 142.25637056 142.25819581 142.26363398 142.27807953 142.30919206 142.35616313 142.39470044 142.37504679 142.25514280 142.25514280 142.25514280 142.25514280 142.25514280 142.25514280 142.25514280 142.25514280 142.25514280 142.25514280 142.32525261 142.37485301 142.39333880 142.36699884 142.32284814 142.29013845 142.27191324 142.26344541 142.25936634 142.25746732 142.25681891 142.25650469 142.25611763 142.25573105 142.25554158 142.25554158 142.25573105 142.25611763 142.25650469 142.25681891 142.25746732 142.25936634 142.26344541 142.27191324 142.29013845 142.32284814 142.36699884 142.39333880 142.37485301 142.32525261 142.25514280 142.25514280 142.25514280 142.25514280 142.25514280 142.25514280 142.25514280 142.25514280 142.25514280 142.25514280 142.25514280 142.25514280 142.35330230 142.39910117 142.38085535 142.34696847 142.31369247 142.29128605 142.27745864 142.26935615 142.26575356 142.26384374 142.26189653 142.25986688 142.25868996 142.25868996 142.25986688 142.26189653 142.26384374 142.26575356 142.26935615 142.27745864 142.29128605 142.31369247 142.34696847 142.38085535 142.39910117 142.35330230 142.25514280 142.25514280 142.25514280 142.25514280 142.25514280 142.25514280 142.25514280 142.25514280 142.25514280 142.25514280 142.25514280 142.25514280 142.25514280 142.25514280 142.25514280 142.34982378 142.37809897 142.39566301 142.37692935 142.35154756 142.32911837 142.31007773 142.29858764 142.29180162 142.28612546 142.27984242 142.27545922 142.27545922 142.27984242 142.28612546 142.29180162 142.29858764 142.31007773 142.32911837 142.35154756 142.37692935 142.39566301 142.37809897 142.34982378 142.25514280 142.25514280 142.25514280 142.25514280 142.25514280 142.25514280 142.25514280 142.25514280 142.25514280 142.25514280 142.25514280 142.25514280 142.25514280 142.25514280 142.25514280 142.25514280 142.25514280 142.25514280 142.35245661 142.37923127 142.39377149 142.39557442 142.37853659 142.36031436 142.34854705 142.34356451 142.33617117 142.32798878 142.32798878 142.33617117 142.34356451 142.34854705 142.36031436 142.37853659 142.39557442 142.39377149 142.37923127 142.35245661 142.25514280 142.25514280 142.25514280 142.25514280 142.25514280 142.25514280 142.25514280 142.25514280 142.25514280 142.25514280 142.25514280 142.25514280 142.25514280 142.25514280 142.25514280 142.25514280 142.25514280 142.25514280 142.25514280 142.25514280 142.25514280 142.25514280 142.32720343 142.37621427 142.38352953 142.37422340 142.36988397 142.39073847 142.40572601 142.40451440 142.40451440 142.40572601 142.39073847 142.36988397 142.37422340 142.38352953 142.37621427 142.32720343 142.25514280 142.25514280 142.25514280 142.25514280 142.25514280 142.25514280 142.25514280 142.25514280 142.25514280 142.25514280 142.25514280 142.25514280 142.25514280 142.25514280 142.25514280 142.25514280 142.25514280 142.25514280 142.25514280 142.25514280 142.25514280 142.25514280 142.25514280 142.25514280 142.25514280 142.25514280 142.25514280 142.25514280 142.25514280 142.32808045 142.37899402 142.39428134 142.39428134 142.37899402 142.32808045 142.25514280 142.25514280 142.25514280 142.25514280 142.25514280 142.25514280 142.25514280 142.25514280 142.25514280 142.25514280 142.25514280 142.25514280 142.25514280 142.25514280 142.25514280 142.25514280 142.25514280 142.25514280 142.25514280 142.25514280 142.25514280 142.25514280 142.25514280 142.25514280 142.25514280 142.25514280 142.25514280 142.25514280 142.25514280 142.25514280 142.25514280 142.25514280 142.25514280 142.25514280 142.25514280 142.25514280 142.25514280 142.25514280 142.25514280 142.25514280 142.25514280 142.25514280 142.25514280 142.25514280 142.25514280 142.25514280 142.25514280 142.25514280 142.25514280 142.25514280 142.25514280 142.25514280 142.25514280 142.25514280 142.25514280 142.25514280 142.25514280 142.25514280 142.25514280 142.25514280 142.25514280 142.25514280 142.25514280 142.25514280 142.25514280 142.25514280 142.25514280 142.25514280 142.25514280 142.25514280 142.25514280 142.25514280 142.25514280 142.25514280 142.25514280 142.25514280 142.25514280 142.25514280 142.25514280 142.25514280 142.25514280 142.25514280 142.25514280 142.25514280 142.25514280 142.25514280 142.25514280 142.25514280 142.25514280 142.25514280 142.25514280 142.25514280 142.25514280 142.25514280 142.25514280 142.25514280 142.25514280 142.25514280 142.25514280 142.25514280 142.25514280 142.25514280 142.25514280 142.25514280 142.25514280 142.25514280 142.25514280 142.25514280 142.25514280 142.25514280 142.25514280 142.25514280 142.25514280 142.25514280 142.25514280 142.25514280 142.25514280 142.25514280 142.25514280 142.25514280 142.25514280 142.25514280 142.25514280 142.25514280 142.25514280 142.25514280 142.25514280 142.25514280 142.25514280 142.25514280 142.25514280 142.25514280 142.25514280 142.25514280 142.25514280 142.25514280 142.25514280 142.25514280 142.25514280 142.25514280 142.25514280 142.25514280 142.25514280 142.25514280 142.25514280 142.25514280 142.25514280 142.25514280 142.25514280 142.25514280 142.25514280 142.25514280 142.25514280 142.25514280 142.25514280 142.25514280 142.25514280 142.25514280 142.25514280 142.25514280 142.25514280 142.25514280 142.25514280 142.25514280 142.25514280 142.25514280 142.25514280 142.25514280 142.25514280 142.25514280 142.25514280 142.25514280 142.25514280 142.25514280 142.25514280 142.25514280 142.25514280 142.25514280 142.25514280 142.25514280 142.25514280 142.25514280 142.25514280 142.25514280 142.25514280 142.25514280 142.25514280 142.25514280 142.25514280 142.25514280 142.25514280 142.25514280 142.25514280 142.25514280 142.25514280 142.25514280 142.25514280 142.25514280 142.25514280 142.25514280 142.25514280 142.25514280 142.25514280 142.25514280 142.25514280 142.25514280 142.25514280 142.25514280 142.25514280 142.25514280 142.25514280 142.25514280 142.25514280 142.25514280 142.25514280 142.25514280 142.25514280 142.25514280 142.25514280 142.25514280 142.25514280 142.25514280 142.25514280 142.25514280 142.25514280 142.25514280 142.25514280 142.25514280 142.25514280 142.25514280 142.25514280 142.25514280 142.25514280 142.25514280 142.25514280 142.25514280 142.25514280 142.25514280 142.25514280 142.25514280 142.25514280 142.25514280 142.25514280 142.25514280 142.25514280 142.25514280 142.25514280 142.25514280 142.25514280 142.25514280 142.25514280 142.25514280 142.25514280 142.25514280 142.25514280 142.25514280 142.25514280 142.25514280 142.25514280 142.25514280 142.25514280 142.25514280 142.25514280 142.25514280 142.25514280 142.25514280 142.25514280 142.25514280 142.25514280 142.25514280 142.25514280 142.25514280 142.25514280 142.25514280 142.25514280 142.25514280 142.25514280 142.25514280 142.25514280 142.25514280 142.25514280 142.25514280 142.25514280 142.25514280 142.25514280 142.25514280 142.25514280 142.25514280 142.25514280 142.25514280 142.25514280 142.25514280 142.25514280 142.25514280 142.25514280 142.25514280 142.25514280 142.25514280 142.25514280 142.25514280 142.25514280 142.25514280 142.25514280 142.25514280 142.25514280 142.25514280 142.25514280 142.25514280 142.25514280 142.25514280 142.25514280 142.25514280 142.25514280 142.25514280 142.25514280 142.25514280 142.25514280 142.25514280 142.25514280 142.25514280 142.25514280 142.25514280 142.25514280 142.25514280 142.25514280 142.25514280 142.25514280 142.25514280 142.25514280 142.25514280 142.25514280 142.25514280 142.25514280 142.25514280 142.25514280 142.25514280 142.25514280 