# vtk DataFile Version 3.0
VTK - Matlab export
ASCII
DATASET STRUCTURED_POINTS
DIMENSIONS 40 40 1
SPACING 1 1 1
ORIGIN 0 0 0
POINT_DATA 1600
SCALARS lambda-2 float 1
LOOKUP_TABLE default
7.22156776 7.22156776 7.22156776 7.22156776 7.22156776 7.22156776 7.22156776 7.22156776 7.22156776 7.22156776 7.22156776 7.22156776 7.22156776 7.22156776 7.22156776 7.22156776 7.22156776 7.22156776 7.22156776 7.22156776 7.22156776 7.22156776 7.22156776 7.22156776 7.22156776 7.22156776 7.22156776 7.22156776 7.22156776 7.22156776 7.22156776 7.22156776 7.22156776 7.22156776 7.22156776 7.22156776 7.22156776 7.22156776 7.22156776 7.22156776 7.22156776 7.22156776 7.22156776 7.22156776 7.22156776 7.22156776 7.22156776 7.22156776 7.22156776 7.22156776 7.22156776 7.22156776 7.22156776 7.22156776 7.22156776 7.22156776 7.22156776 7.22156776 7.22156776 7.22156776 7.22156776 7.22156776 7.22156776 7.22156776 7.22156776 7.22156776 7.22156776 7.22156776 7.22156776 7.22156776 7.22156776 7.22156776 7.22156776 7.22156776 7.22156776 7.22156776 7.22156776 7.22156776 7.22156776 7.22156776 7.22156776 7.22156776 7.22156776 7.22156776 7.22156776 7.22156776 7.22156776 7.22156776 7.22156776 7.22156776 7.22156776 7.22156776 7.22156776 7.22156776 7.22156776 7.22156776 7.22156776 7.22156776 7.22156776 7.22156776 7.22156776 7.22156776 7.22156776 7.22156776 7.22156776 7.22156776 7.22156776 7.22156776 7.22156776 7.22156776 7.22156776 7.22156776 7.22156776 7.22156776 7.22156776 7.22156776 7.22156776 7.22156776 7.22156776 7.22156776 7.22156776 7.22156776 7.22156776 7.22156776 7.22156776 7.22156776 7.22156776 7.22156776 7.22156776 7.22156776 7.22156776 7.22156776 7.22156776 7.22156776 7.22156776 7.22156776 7.22156776 7.22156776 7.22156776 7.22156776 7.22156776 7.22156776 7.22156776 7.22156776 7.22156776 7.22156776 7.22156776 7.22156776 7.22156776 7.22156776 7.22156776 7.22156776 7.22156776 7.22156776 7.22156776 7.22156776 7.22156776 7.22156776 7.22156776 7.22156776 7.22156776 7.22156776 7.22156776 7.22156776 7.22156776 7.22156776 7.22156776 7.22156776 7.22156776 7.22156776 7.22156776 7.22156776 7.22156776 7.22156776 7.22156776 7.22156776 7.22156776 7.22156776 7.22156776 7.22156776 7.22156776 7.22156776 7.22156776 7.22156776 7.22156776 7.22156776 7.22156776 7.22156776 7.22156776 7.22156776 7.22156776 7.22156776 7.22156776 7.22156776 7.22156776 7.22156776 7.22156776 7.22156776 7.22156776 7.22156776 7.22156776 7.22156776 7.22156776 7.22156776 7.22156776 7.22156776 7.22156776 7.22156776 7.22156776 7.22156776 7.22156776 7.22156776 7.22156776 7.22156776 7.22156776 7.22156776 7.22156776 7.22156776 7.22156776 7.22156776 7.22156776 7.22156776 7.22156776 7.22156776 7.22156776 7.22156776 7.22156776 7.22156776 7.22156776 7.22156776 7.22156776 7.22156776 7.22156776 7.22156776 7.22156776 7.22156776 7.22156776 7.22156776 7.22156776 7.22156776 7.22156776 7.22156776 7.22156776 7.22156776 7.22156776 7.22156776 7.22156776 7.22156776 7.22156776 7.22156776 7.22156776 7.22156776 7.22156776 7.22156776 7.22156776 7.22156776 7.22156776 7.22156776 7.22156776 7.22156776 7.22156776 7.22156776 7.22156776 7.22156776 7.22156776 7.22156776 7.22156776 7.22156776 7.22156776 7.22156776 7.22156776 7.22156776 7.22156776 7.22156776 7.22156776 7.22156776 7.22156776 7.22156776 7.22156776 7.22156776 7.22156776 7.22156776 7.22156776 7.22156776 7.22156776 7.22156776 7.22156776 7.22156776 7.22156776 7.22156776 7.22156776 7.22156776 7.22156776 7.22156776 7.22156776 7.22156776 7.22156776 7.22156776 7.22156776 7.22156776 7.22156776 7.22156776 7.22156776 7.22156776 7.22156776 7.22156776 7.22156776 7.22156776 7.22156776 7.22156776 7.22156776 7.22156776 7.22156776 7.22156776 7.22156776 7.22156776 7.22156776 7.22156776 7.22156776 7.22156776 7.22156776 7.22156776 7.22156776 7.22156776 7.22156776 7.22156776 7.22156776 7.22156776 7.22156776 7.22156776 7.22156776 7.22156776 7.22156776 7.22156776 7.22156776 7.22156776 7.22156776 7.20335837 7.19070645 7.18531528 7.18531528 7.19070645 7.20335837 7.22156776 7.22156776 7.22156776 7.22156776 7.22156776 7.22156776 7.22156776 7.22156776 7.22156776 7.22156776 7.22156776 7.22156776 7.22156776 7.22156776 7.22156776 7.22156776 7.22156776 7.22156776 7.22156776 7.22156776 7.22156776 7.22156776 7.22156776 7.22156776 7.22156776 7.22156776 7.22156776 7.22156776 7.22156776 7.20299544 7.18939939 7.18401441 7.18331788 7.18245995 7.17542744 7.16788958 7.16412762 7.16412762 7.16788958 7.17542744 7.18245995 7.18331788 7.18401441 7.18939939 7.20299544 7.22156776 7.22156776 7.22156776 7.22156776 7.22156776 7.22156776 7.22156776 7.22156776 7.22156776 7.22156776 7.22156776 7.22156776 7.22156776 7.22156776 7.22156776 7.22156776 7.22156776 7.22156776 7.22156776 7.22156776 7.22156776 7.22156776 7.19494058 7.18364570 7.17473315 7.16866563 7.16803839 7.17084699 7.17344307 7.17332866 7.17209429 7.17155532 7.17155532 7.17209429 7.17332866 7.17344307 7.17084699 7.16803839 7.16866563 7.17473315 7.18364570 7.19494058 7.22156776 7.22156776 7.22156776 7.22156776 7.22156776 7.22156776 7.22156776 7.22156776 7.22156776 7.22156776 7.22156776 7.22156776 7.22156776 7.22156776 7.22156776 7.22156776 7.22156776 7.22156776 7.19668115 7.18351664 7.17136712 7.16840318 7.17025566 7.17382090 7.17876333 7.18398290 7.18808964 7.19055861 7.19202380 7.19291727 7.19291727 7.19202380 7.19055861 7.18808964 7.18398290 7.17876333 7.17382090 7.17025566 7.16840318 7.17136712 7.18351664 7.19668115 7.22156776 7.22156776 7.22156776 7.22156776 7.22156776 7.22156776 7.22156776 7.22156776 7.22156776 7.22156776 7.22156776 7.22156776 7.22156776 7.22156776 7.22156776 7.19271466 7.17418121 7.16853863 7.17036558 7.17740748 7.18570433 7.19283974 7.19852114 7.20278808 7.20574696 7.20772316 7.20908219 7.20986884 7.20986884 7.20908219 7.20772316 7.20574696 7.20278808 7.19852114 7.19283974 7.18570433 7.17740748 7.17036558 7.16853863 7.17418121 7.19271466 7.22156776 7.22156776 7.22156776 7.22156776 7.22156776 7.22156776 7.22156776 7.22156776 7.22156776 7.22156776 7.22156776 7.22156776 7.20502690 7.18700622 7.17177952 7.16843686 7.17510593 7.18554883 7.19574785 7.20368644 7.20907962 7.21255894 7.21473787 7.21609345 7.21699498 7.21763130 7.21799270 7.21799270 7.21763130 7.21699498 7.21609345 7.21473787 7.21255894 7.20907962 7.20368644 7.19574785 7.18554883 7.17510593 7.16843686 7.17177952 7.18700622 7.20502690 7.22156776 7.22156776 7.22156776 7.22156776 7.22156776 7.22156776 7.22156776 7.22156776 7.22156776 7.22156776 7.18660286 7.17013032 7.16917880 7.17864946 7.19147490 7.20252442 7.21018872 7.21484310 7.21746180 7.21889997 7.21968163 7.22012192 7.22040788 7.22061126 7.22072527 7.22072527 7.22061126 7.22040788 7.22012192 7.21968163 7.21889997 7.21746180 7.21484310 7.21018872 7.20252442 7.19147490 7.17864946 7.16917880 7.17013032 7.18660286 7.22156776 7.22156776 7.22156776 7.22156776 7.22156776 7.22156776 7.22156776 7.22156776 7.22156776 7.19131252 7.17011518 7.16820024 7.17955472 7.19427148 7.20614104 7.21361015 7.21763136 7.21959671 7.22051887 7.22095444 7.22116247 7.22126905 7.22133668 7.22138511 7.22141193 7.22141193 7.22138511 7.22133668 7.22126905 7.22116247 7.22095444 7.22051887 7.21959671 7.21763136 7.21361015 7.20614104 7.19427148 7.17955472 7.16820024 7.17011518 7.19131252 7.22156776 7.22156776 7.22156776 7.22156776 7.22156776 7.22156776 7.22156776 7.19543272 7.17069643 7.16461908 7.17617577 7.19329411 7.20693194 7.21495226 7.21882604 7.22046542 7.22110770 7.22135624 7.22145675 7.22149900 7.22151874 7.22153108 7.22154002 7.22154489 7.22154489 7.22154002 7.22153108 7.22151874 7.22149900 7.22145675 7.22135624 7.22110770 7.22046542 7.21882604 7.21495226 7.20693194 7.19329411 7.17617577 7.16461908 7.17069643 7.19543272 7.22156776 7.22156776 7.22156776 7.22156776 7.22156776 7.22156776 7.18323650 7.16289141 7.16826151 7.18698855 7.20418211 7.21439229 7.21901355 7.22074106 7.22130717 7.22148005 7.22153354 7.22155173 7.22155842 7.22156127 7.22156305 7.22156436 7.22156506 7.22156506 7.22156436 7.22156305 7.22156127 7.22155842 7.22155173 7.22153354 7.22148005 7.22130717 7.22074106 7.21901355 7.21439229 7.20418211 7.18698855 7.16826151 7.16289141 7.18323650 7.22156776 7.22156776 7.22156776 7.22156776 7.22156776 7.22156776 7.17802489 7.16235968 7.17458231 7.19548555 7.21060902 7.21789489 7.22054125 7.22131587 7.22150895 7.22155282 7.22156302 7.22156580 7.22156668 7.22156702 7.22156724 7.22156741 7.22156749 7.22156749 7.22156741 7.22156724 7.22156702 7.22156668 7.22156580 7.22156302 7.22155282 7.22150895 7.22131587 7.22054125 7.21789489 7.21060902 7.19548555 7.17458231 7.16235968 7.17802489 7.22156776 7.22156776 7.22156776 7.22156776 7.22156776 7.20634489 7.17252537 7.16253648 7.17844401 7.19971771 7.21334018 7.21916112 7.22100228 7.22145700 7.22154839 7.22156421 7.22156689 7.22156745 7.22156760 7.22156765 7.22156768 7.22156771 7.22156773 7.22156773 7.22156771 7.22156768 7.22156765 7.22156760 7.22156745 7.22156689 7.22156421 7.22154839 7.22145700 7.22100228 7.21916112 7.21334018 7.19971771 7.17844401 7.16253648 7.17252537 7.20634489 7.22156776 7.22156776 7.22156776 7.22156776 7.20634489 7.17252537 7.16253648 7.17844401 7.19971771 7.21334018 7.21916112 7.22100228 7.22145700 7.22154839 7.22156421 7.22156689 7.22156745 7.22156760 7.22156765 7.22156768 7.22156771 7.22156773 7.22156773 7.22156771 7.22156768 7.22156765 7.22156760 7.22156745 7.22156689 7.22156421 7.22154839 7.22145700 7.22100228 7.21916112 7.21334018 7.19971771 7.17844401 7.16253648 7.17252537 7.20634489 7.22156776 7.22156776 7.22156776 7.22156776 7.22156776 7.17802489 7.16235968 7.17458231 7.19548555 7.21060902 7.21789489 7.22054125 7.22131587 7.22150895 7.22155282 7.22156302 7.22156580 7.22156668 7.22156702 7.22156724 7.22156741 7.22156749 7.22156749 7.22156741 7.22156724 7.22156702 7.22156668 7.22156580 7.22156302 7.22155282 7.22150895 7.22131587 7.22054125 7.21789489 7.21060902 7.19548555 7.17458231 7.16235968 7.17802489 7.22156776 7.22156776 7.22156776 7.22156776 7.22156776 7.22156776 7.18323650 7.16289141 7.16826151 7.18698855 7.20418211 7.21439229 7.21901355 7.22074106 7.22130717 7.22148005 7.22153354 7.22155173 7.22155842 7.22156127 7.22156305 7.22156436 7.22156506 7.22156506 7.22156436 7.22156305 7.22156127 7.22155842 7.22155173 7.22153354 7.22148005 7.22130717 7.22074106 7.21901355 7.21439229 7.20418211 7.18698855 7.16826151 7.16289141 7.18323650 7.22156776 7.22156776 7.22156776 7.22156776 7.22156776 7.22156776 7.19543272 7.17069643 7.16461908 7.17617577 7.19329411 7.20693194 7.21495226 7.21882604 7.22046542 7.22110770 7.22135624 7.22145675 7.22149900 7.22151874 7.22153108 7.22154002 7.22154489 7.22154489 7.22154002 7.22153108 7.22151874 7.22149900 7.22145675 7.22135624 7.22110770 7.22046542 7.21882604 7.21495226 7.20693194 7.19329411 7.17617577 7.16461908 7.17069643 7.19543272 7.22156776 7.22156776 7.22156776 7.22156776 7.22156776 7.22156776 7.22156776 7.19131252 7.17011518 7.16820024 7.17955472 7.19427148 7.20614104 7.21361015 7.21763136 7.21959671 7.22051887 7.22095444 7.22116247 7.22126905 7.22133668 7.22138511 7.22141193 7.22141193 7.22138511 7.22133668 7.22126905 7.22116247 7.22095444 7.22051887 7.21959671 7.21763136 7.21361015 7.20614104 7.19427148 7.17955472 7.16820024 7.17011518 7.19131252 7.22156776 7.22156776 7.22156776 7.22156776 7.22156776 7.22156776 7.22156776 7.22156776 7.22156776 7.18660286 7.17013032 7.16917880 7.17864946 7.19147490 7.20252442 7.21018872 7.21484310 7.21746180 7.21889997 7.21968163 7.22012192 7.22040788 7.22061126 7.22072527 7.22072527 7.22061126 7.22040788 7.22012192 7.21968163 7.21889997 7.21746180 7.21484310 7.21018872 7.20252442 7.19147490 7.17864946 7.16917880 7.17013032 7.18660286 7.22156776 7.22156776 7.22156776 7.22156776 7.22156776 7.22156776 7.22156776 7.22156776 7.22156776 7.22156776 7.20502690 7.18700622 7.17177952 7.16843686 7.17510593 7.18554883 7.19574785 7.20368644 7.20907962 7.21255894 7.21473787 7.21609345 7.21699498 7.21763130 7.21799270 7.21799270 7.21763130 7.21699498 7.21609345 7.21473787 7.21255894 7.20907962 7.20368644 7.19574785 7.18554883 7.17510593 7.16843686 7.17177952 7.18700622 7.20502690 7.22156776 7.22156776 7.22156776 7.22156776 7.22156776 7.22156776 7.22156776 7.22156776 7.22156776 7.22156776 7.22156776 7.22156776 7.19271466 7.17418121 7.16853863 7.17036558 7.17740748 7.18570433 7.19283974 7.19852114 7.20278808 7.20574696 7.20772316 7.20908219 7.20986884 7.20986884 7.20908219 7.20772316 7.20574696 7.20278808 7.19852114 7.19283974 7.18570433 7.17740748 7.17036558 7.16853863 7.17418121 7.19271466 7.22156776 7.22156776 7.22156776 7.22156776 7.22156776 7.22156776 7.22156776 7.22156776 7.22156776 7.22156776 7.22156776 7.22156776 7.22156776 7.22156776 7.22156776 7.19668115 7.18351664 7.17136712 7.16840318 7.17025566 7.17382090 7.17876333 7.18398290 7.18808964 7.19055861 7.19202380 7.19291727 7.19291727 7.19202380 7.19055861 7.18808964 7.18398290 7.17876333 7.17382090 7.17025566 7.16840318 7.17136712 7.18351664 7.19668115 7.22156776 7.22156776 7.22156776 7.22156776 7.22156776 7.22156776 7.22156776 7.22156776 7.22156776 7.22156776 7.22156776 7.22156776 7.22156776 7.22156776 7.22156776 7.22156776 7.22156776 7.22156776 7.19494058 7.18364570 7.17473315 7.16866563 7.16803839 7.17084699 7.17344307 7.17332866 7.17209429 7.17155532 7.17155532 7.17209429 7.17332866 7.17344307 7.17084699 7.16803839 7.16866563 7.17473315 7.18364570 7.19494058 7.22156776 7.22156776 7.22156776 7.22156776 7.22156776 7.22156776 7.22156776 7.22156776 7.22156776 7.22156776 7.22156776 7.22156776 7.22156776 7.22156776 7.22156776 7.22156776 7.22156776 7.22156776 7.22156776 7.22156776 7.22156776 7.22156776 7.20299544 7.18939939 7.18401441 7.18331788 7.18245995 7.17542744 7.16788958 7.16412762 7.16412762 7.16788958 7.17542744 7.18245995 7.18331788 7.18401441 7.18939939 7.20299544 7.22156776 7.22156776 7.22156776 7.22156776 7.22156776 7.22156776 7.22156776 7.22156776 7.22156776 7.22156776 7.22156776 7.22156776 7.22156776 7.22156776 7.22156776 7.22156776 7.22156776 7.22156776 7.22156776 7.22156776 7.22156776 7.22156776 7.22156776 7.22156776 7.22156776 7.22156776 7.22156776 7.22156776 7.22156776 7.20335837 7.19070645 7.18531528 7.18531528 7.19070645 7.20335837 7.22156776 7.22156776 7.22156776 7.22156776 7.22156776 7.22156776 7.22156776 7.22156776 7.22156776 7.22156776 7.22156776 7.22156776 7.22156776 7.22156776 7.22156776 7.22156776 7.22156776 7.22156776 7.22156776 7.22156776 7.22156776 7.22156776 7.22156776 7.22156776 7.22156776 7.22156776 7.22156776 7.22156776 7.22156776 7.22156776 7.22156776 7.22156776 7.22156776 7.22156776 7.22156776 7.22156776 7.22156776 7.22156776 7.22156776 7.22156776 7.22156776 7.22156776 7.22156776 7.22156776 7.22156776 7.22156776 7.22156776 7.22156776 7.22156776 7.22156776 7.22156776 7.22156776 7.22156776 7.22156776 7.22156776 7.22156776 7.22156776 7.22156776 7.22156776 7.22156776 7.22156776 7.22156776 7.22156776 7.22156776 7.22156776 7.22156776 7.22156776 7.22156776 7.22156776 7.22156776 7.22156776 7.22156776 7.22156776 7.22156776 7.22156776 7.22156776 7.22156776 7.22156776 7.22156776 7.22156776 7.22156776 7.22156776 7.22156776 7.22156776 7.22156776 7.22156776 7.22156776 7.22156776 7.22156776 7.22156776 7.22156776 7.22156776 7.22156776 7.22156776 7.22156776 7.22156776 7.22156776 7.22156776 7.22156776 7.22156776 7.22156776 7.22156776 7.22156776 7.22156776 7.22156776 7.22156776 7.22156776 7.22156776 7.22156776 7.22156776 7.22156776 7.22156776 7.22156776 7.22156776 7.22156776 7.22156776 7.22156776 7.22156776 7.22156776 7.22156776 7.22156776 7.22156776 7.22156776 7.22156776 7.22156776 7.22156776 7.22156776 7.22156776 7.22156776 7.22156776 7.22156776 7.22156776 7.22156776 7.22156776 7.22156776 7.22156776 7.22156776 7.22156776 7.22156776 7.22156776 7.22156776 7.22156776 7.22156776 7.22156776 7.22156776 7.22156776 7.22156776 7.22156776 7.22156776 7.22156776 7.22156776 7.22156776 7.22156776 7.22156776 7.22156776 7.22156776 7.22156776 7.22156776 7.22156776 7.22156776 7.22156776 7.22156776 7.22156776 7.22156776 7.22156776 7.22156776 7.22156776 7.22156776 7.22156776 7.22156776 7.22156776 7.22156776 7.22156776 7.22156776 7.22156776 7.22156776 7.22156776 7.22156776 7.22156776 7.22156776 7.22156776 7.22156776 7.22156776 7.22156776 7.22156776 7.22156776 7.22156776 7.22156776 7.22156776 7.22156776 7.22156776 7.22156776 7.22156776 7.22156776 7.22156776 7.22156776 7.22156776 7.22156776 7.22156776 7.22156776 7.22156776 7.22156776 7.22156776 7.22156776 7.22156776 7.22156776 7.22156776 7.22156776 7.22156776 7.22156776 7.22156776 7.22156776 7.22156776 7.22156776 7.22156776 7.22156776 7.22156776 7.22156776 7.22156776 7.22156776 7.22156776 7.22156776 7.22156776 7.22156776 7.22156776 7.22156776 7.22156776 7.22156776 7.22156776 7.22156776 7.22156776 7.22156776 7.22156776 7.22156776 7.22156776 7.22156776 7.22156776 7.22156776 7.22156776 7.22156776 7.22156776 7.22156776 7.22156776 7.22156776 7.22156776 7.22156776 7.22156776 7.22156776 7.22156776 7.22156776 7.22156776 7.22156776 7.22156776 7.22156776 7.22156776 7.22156776 7.22156776 7.22156776 7.22156776 7.22156776 7.22156776 7.22156776 7.22156776 7.22156776 7.22156776 7.22156776 7.22156776 7.22156776 7.22156776 7.22156776 7.22156776 7.22156776 7.22156776 7.22156776 7.22156776 7.22156776 7.22156776 7.22156776 7.22156776 7.22156776 7.22156776 7.22156776 7.22156776 7.22156776 7.22156776 7.22156776 7.22156776 7.22156776 7.22156776 7.22156776 7.22156776 7.22156776 7.22156776 7.22156776 7.22156776 7.22156776 7.22156776 7.22156776 7.22156776 7.22156776 7.22156776 7.22156776 7.22156776 7.22156776 7.22156776 7.22156776 7.22156776 7.22156776 7.22156776 7.22156776 7.22156776 7.22156776 7.22156776 7.22156776 7.22156776 7.22156776 7.22156776 7.22156776 7.22156776 7.22156776 7.22156776 7.22156776 7.22156776 7.22156776 7.22156776 7.22156776 7.22156776 7.22156776 7.22156776 7.22156776 7.22156776 7.22156776 7.22156776 7.22156776 7.22156776 7.22156776 7.22156776 