# vtk DataFile Version 3.0
VTK - Matlab export
ASCII
DATASET STRUCTURED_POINTS
DIMENSIONS 40 40 1
SPACING 1 1 1
ORIGIN 0 0 0
POINT_DATA 1600
SCALARS lambda-2 float 1
LOOKUP_TABLE default
7.22156776 7.22156776 7.22156776 7.22156776 7.22156776 7.22156776 7.22156776 7.22156776 7.22156776 7.22156776 7.22156776 7.22156776 7.22156776 7.22156776 7.22156776 7.22156776 7.22156776 7.22156776 7.22156776 7.22156776 7.22156776 7.22156776 7.22156776 7.22156776 7.22156776 7.22156776 7.22156776 7.22156776 7.22156776 7.22156776 7.22156776 7.22156776 7.22156776 7.22156776 7.22156776 7.22156776 7.22156776 7.22156776 7.22156776 7.22156776 7.22156776 7.22156776 7.22156776 7.22156776 7.22156776 7.22156776 7.22156776 7.22156776 7.22156776 7.22156776 7.22156776 7.22156776 7.22156776 7.22156776 7.22156776 7.22156776 7.22156776 7.22156776 7.22156776 7.22156776 7.22156776 7.22156776 7.22156776 7.22156776 7.22156776 7.22156776 7.22156776 7.22156776 7.22156776 7.22156776 7.22156776 7.22156776 7.22156776 7.22156776 7.22156776 7.22156776 7.22156776 7.22156776 7.22156776 7.22156776 7.22156776 7.22156776 7.22156776 7.22156776 7.22156776 7.22156776 7.22156776 7.22156776 7.22156776 7.22156776 7.22156776 7.22156776 7.22156776 7.22156776 7.22156776 7.22156776 7.22156776 7.22156776 7.22156776 7.22156776 7.22156776 7.22156776 7.22156776 7.22156776 7.22156776 7.22156776 7.22156776 7.22156776 7.22156776 7.22156776 7.22156776 7.22156776 7.22156776 7.22156776 7.22156776 7.22156776 7.22156776 7.22156776 7.22156776 7.22156776 7.22156776 7.22156776 7.22156776 7.22156776 7.22156776 7.22156776 7.22156776 7.22156776 7.22156776 7.22156776 7.22156776 7.22156776 7.22156776 7.22156776 7.22156776 7.22156776 7.22156776 7.22156776 7.22156776 7.22156776 7.22156776 7.22156776 7.22156776 7.22156776 7.22156776 7.22156776 7.22156776 7.22156776 7.22156776 7.22156776 7.22156776 7.22156776 7.22156776 7.22156776 7.22156776 7.22156776 7.22156776 7.22156776 7.22156776 7.22156776 7.22156776 7.22156776 7.22156776 7.22156776 7.22156776 7.22156776 7.22156776 7.22156776 7.22156776 7.22156776 7.22156776 7.22156776 7.22156776 7.22156776 7.22156776 7.22156776 7.22156776 7.22156776 7.22156776 7.22156776 7.22156776 7.22156776 7.22156776 7.22156776 7.22156776 7.22156776 7.22156776 7.22156776 7.22156776 7.22156776 7.22156776 7.22156776 7.22156776 7.22156776 7.22156776 7.22156776 7.22156776 7.22156776 7.22156776 7.22156776 7.22156776 7.22156776 7.22156776 7.22156776 7.22156776 7.22156776 7.22156776 7.22156776 7.22156776 7.22156776 7.22156776 7.22156776 7.22156776 7.22156776 7.22156776 7.22156776 7.22156776 7.22156776 7.22156776 7.22156776 7.22156776 7.22156776 7.22156776 7.22156776 7.22156776 7.22156776 7.22156776 7.22156776 7.22156776 7.22156776 7.22156776 7.22156776 7.22156776 7.22156776 7.22156776 7.22156776 7.22156776 7.22156776 7.22156776 7.22156776 7.22156776 7.22156776 7.22156776 7.22156776 7.22156776 7.22156776 7.22156776 7.22156776 7.22156776 7.22156776 7.22156776 7.22156776 7.22156776 7.22156776 7.22156776 7.22156776 7.22156776 7.22156776 7.22156776 7.22156776 7.22156776 7.22156776 7.22156776 7.22156776 7.22156776 7.22156776 7.22156776 7.22156776 7.22156776 7.22156776 7.22156776 7.22156776 7.22156776 7.22156776 7.22156776 7.22156776 7.22156776 7.22156776 7.22156776 7.22156776 7.22156776 7.22156776 7.22156776 7.22156776 7.22156776 7.22156776 7.22156776 7.22156776 7.22156776 7.22156776 7.22156776 7.22156776 7.22156776 7.22156776 7.22156776 7.22156776 7.22156776 7.22156776 7.22156776 7.22156776 7.22156776 7.22156776 7.22156776 7.22156776 7.22156776 7.22156776 7.22156776 7.22156776 7.22156776 7.22156776 7.22156776 7.22156776 7.22156776 7.22156776 7.22156776 7.22156776 7.22156776 7.22156776 7.22156776 7.22156776 7.22156776 7.22156776 7.22156776 7.22156776 7.22156776 7.22156776 7.22156776 7.22156776 7.22156776 7.22156776 7.22156776 7.22156776 7.22156776 7.22156776 7.22156776 7.22156776 7.22156776 7.22047692 7.21988610 7.21966919 7.21966919 7.21988610 7.22047692 7.22156776 7.22156776 7.22156776 7.22156776 7.22156776 7.22156776 7.22156776 7.22156776 7.22156776 7.22156776 7.22156776 7.22156776 7.22156776 7.22156776 7.22156776 7.22156776 7.22156776 7.22156776 7.22156776 7.22156776 7.22156776 7.22156776 7.22156776 7.22156776 7.22156776 7.22156776 7.22156776 7.22156776 7.22156776 7.22041531 7.21955639 7.21904279 7.21870685 7.21840383 7.21789673 7.21748326 7.21728382 7.21728382 7.21748326 7.21789673 7.21840383 7.21870685 7.21904279 7.21955639 7.22041531 7.22156776 7.22156776 7.22156776 7.22156776 7.22156776 7.22156776 7.22156776 7.22156776 7.22156776 7.22156776 7.22156776 7.22156776 7.22156776 7.22156776 7.22156776 7.22156776 7.22156776 7.22156776 7.22156776 7.22156776 7.22156776 7.22156776 7.21985207 7.21888978 7.21792740 7.21706088 7.21641575 7.21594997 7.21557892 7.21522528 7.21494556 7.21479933 7.21479933 7.21494556 7.21522528 7.21557892 7.21594997 7.21641575 7.21706088 7.21792740 7.21888978 7.21985207 7.22156776 7.22156776 7.22156776 7.22156776 7.22156776 7.22156776 7.22156776 7.22156776 7.22156776 7.22156776 7.22156776 7.22156776 7.22156776 7.22156776 7.22156776 7.22156776 7.22156776 7.22156776 7.21996175 7.21879440 7.21741648 7.21629091 7.21533748 7.21454242 7.21393508 7.21349222 7.21316333 7.21290612 7.21272124 7.21262522 7.21262522 7.21272124 7.21290612 7.21316333 7.21349222 7.21393508 7.21454242 7.21533748 7.21629091 7.21741648 7.21879440 7.21996175 7.22156776 7.22156776 7.22156776 7.22156776 7.22156776 7.22156776 7.22156776 7.22156776 7.22156776 7.22156776 7.22156776 7.22156776 7.22156776 7.22156776 7.22156776 7.21952721 7.21777522 7.21628454 7.21494320 7.21384645 7.21298468 7.21233077 7.21186364 7.21154689 7.21133534 7.21119163 7.21109844 7.21105209 7.21105209 7.21109844 7.21119163 7.21133534 7.21154689 7.21186364 7.21233077 7.21298468 7.21384645 7.21494320 7.21628454 7.21777522 7.21952721 7.22156776 7.22156776 7.22156776 7.22156776 7.22156776 7.22156776 7.22156776 7.22156776 7.22156776 7.22156776 7.22156776 7.22156776 7.22056948 7.21911609 7.21723023 7.21545372 7.21392747 7.21267852 7.21173102 7.21106349 7.21063027 7.21038002 7.21025862 7.21021488 7.21020844 7.21021415 7.21021948 7.21021948 7.21021415 7.21020844 7.21021488 7.21025862 7.21038002 7.21063027 7.21106349 7.21173102 7.21267852 7.21392747 7.21545372 7.21723023 7.21911609 7.22056948 7.22156776 7.22156776 7.22156776 7.22156776 7.22156776 7.22156776 7.22156776 7.22156776 7.22156776 7.22156776 7.21914677 7.21704643 7.21504387 7.21327631 7.21184233 7.21077697 7.21007197 7.20967931 7.20952847 7.20954398 7.20965553 7.20980419 7.20994621 7.21005341 7.21011030 7.21011030 7.21005341 7.20994621 7.20980419 7.20965553 7.20954398 7.20952847 7.20967931 7.21007197 7.21077697 7.21184233 7.21327631 7.21504387 7.21704643 7.21914677 7.22156776 7.22156776 7.22156776 7.22156776 7.22156776 7.22156776 7.22156776 7.22156776 7.22156776 7.21964093 7.21735864 7.21511973 7.21308435 7.21139340 7.21013183 7.20931772 7.20891268 7.20883822 7.20899725 7.20929348 7.20964372 7.20998355 7.21026819 7.21046997 7.21057397 7.21057397 7.21046997 7.21026819 7.20998355 7.20964372 7.20929348 7.20899725 7.20883822 7.20891268 7.20931772 7.21013183 7.21139340 7.21308435 7.21511973 7.21735864 7.21964093 7.22156776 7.22156776 7.22156776 7.22156776 7.22156776 7.22156776 7.22156776 7.22019312 7.21811697 7.21576044 7.21346250 7.21145307 7.20988671 7.20883796 7.20830211 7.20821038 7.20845423 7.20891188 7.20947002 7.21003655 7.21054482 7.21095178 7.21123279 7.21137565 7.21137565 7.21123279 7.21095178 7.21054482 7.21003655 7.20947002 7.20891188 7.20845423 7.20821038 7.20830211 7.20883796 7.20988671 7.21145307 7.21346250 7.21576044 7.21811697 7.22019312 7.22156776 7.22156776 7.22156776 7.22156776 7.22156776 7.22156776 7.21941467 7.21700995 7.21451203 7.21217228 7.21021270 7.20878352 7.20794490 7.20766875 7.20785858 7.20837972 7.20909016 7.20986403 7.21060407 7.21124404 7.21174431 7.21208454 7.21225604 7.21225604 7.21208454 7.21174431 7.21124404 7.21060407 7.20986403 7.20909016 7.20837972 7.20785858 7.20766875 7.20794490 7.20878352 7.21021270 7.21217228 7.21451203 7.21700995 7.21941467 7.22156776 7.22156776 7.22156776 7.22156776 7.22156776 7.22156776 7.21891536 7.21626959 7.21366093 7.21129689 7.20938687 7.20807264 7.20740075 7.20732404 7.20772481 7.20844916 7.20934093 7.21026627 7.21112552 7.21185400 7.21241568 7.21279417 7.21298395 7.21298395 7.21279417 7.21241568 7.21185400 7.21112552 7.21026627 7.20934093 7.20844916 7.20772481 7.20732404 7.20740075 7.20807264 7.20938687 7.21129689 7.21366093 7.21626959 7.21891536 7.22156776 7.22156776 7.22156776 7.22156776 7.22156776 7.22077743 7.21850998 7.21586594 7.21322442 7.21085501 7.20897617 7.20772722 7.20714726 7.20717855 7.20769189 7.20852326 7.20950926 7.21051221 7.21143165 7.21220414 7.21279591 7.21319290 7.21339144 7.21339144 7.21319290 7.21279591 7.21220414 7.21143165 7.21051221 7.20950926 7.20852326 7.20769189 7.20717855 7.20714726 7.20772722 7.20897617 7.21085501 7.21322442 7.21586594 7.21850998 7.22077743 7.22156776 7.22156776 7.22156776 7.22156776 7.22077743 7.21850998 7.21586594 7.21322442 7.21085501 7.20897617 7.20772722 7.20714726 7.20717855 7.20769189 7.20852326 7.20950926 7.21051221 7.21143165 7.21220414 7.21279591 7.21319290 7.21339144 7.21339144 7.21319290 7.21279591 7.21220414 7.21143165 7.21051221 7.20950926 7.20852326 7.20769189 7.20717855 7.20714726 7.20772722 7.20897617 7.21085501 7.21322442 7.21586594 7.21850998 7.22077743 7.22156776 7.22156776 7.22156776 7.22156776 7.22156776 7.21891536 7.21626959 7.21366093 7.21129689 7.20938687 7.20807264 7.20740075 7.20732404 7.20772481 7.20844916 7.20934093 7.21026627 7.21112552 7.21185400 7.21241568 7.21279417 7.21298395 7.21298395 7.21279417 7.21241568 7.21185400 7.21112552 7.21026627 7.20934093 7.20844916 7.20772481 7.20732404 7.20740075 7.20807264 7.20938687 7.21129689 7.21366093 7.21626959 7.21891536 7.22156776 7.22156776 7.22156776 7.22156776 7.22156776 7.22156776 7.21941467 7.21700995 7.21451203 7.21217228 7.21021270 7.20878352 7.20794490 7.20766875 7.20785858 7.20837972 7.20909016 7.20986403 7.21060407 7.21124404 7.21174431 7.21208454 7.21225604 7.21225604 7.21208454 7.21174431 7.21124404 7.21060407 7.20986403 7.20909016 7.20837972 7.20785858 7.20766875 7.20794490 7.20878352 7.21021270 7.21217228 7.21451203 7.21700995 7.21941467 7.22156776 7.22156776 7.22156776 7.22156776 7.22156776 7.22156776 7.22019312 7.21811697 7.21576044 7.21346250 7.21145307 7.20988671 7.20883796 7.20830211 7.20821038 7.20845423 7.20891188 7.20947002 7.21003655 7.21054482 7.21095178 7.21123279 7.21137565 7.21137565 7.21123279 7.21095178 7.21054482 7.21003655 7.20947002 7.20891188 7.20845423 7.20821038 7.20830211 7.20883796 7.20988671 7.21145307 7.21346250 7.21576044 7.21811697 7.22019312 7.22156776 7.22156776 7.22156776 7.22156776 7.22156776 7.22156776 7.22156776 7.21964093 7.21735864 7.21511973 7.21308435 7.21139340 7.21013183 7.20931772 7.20891268 7.20883822 7.20899725 7.20929348 7.20964372 7.20998355 7.21026819 7.21046997 7.21057397 7.21057397 7.21046997 7.21026819 7.20998355 7.20964372 7.20929348 7.20899725 7.20883822 7.20891268 7.20931772 7.21013183 7.21139340 7.21308435 7.21511973 7.21735864 7.21964093 7.22156776 7.22156776 7.22156776 7.22156776 7.22156776 7.22156776 7.22156776 7.22156776 7.22156776 7.21914677 7.21704643 7.21504387 7.21327631 7.21184233 7.21077697 7.21007197 7.20967931 7.20952847 7.20954398 7.20965553 7.20980419 7.20994621 7.21005341 7.21011030 7.21011030 7.21005341 7.20994621 7.20980419 7.20965553 7.20954398 7.20952847 7.20967931 7.21007197 7.21077697 7.21184233 7.21327631 7.21504387 7.21704643 7.21914677 7.22156776 7.22156776 7.22156776 7.22156776 7.22156776 7.22156776 7.22156776 7.22156776 7.22156776 7.22156776 7.22056948 7.21911609 7.21723023 7.21545372 7.21392747 7.21267852 7.21173102 7.21106349 7.21063027 7.21038002 7.21025862 7.21021488 7.21020844 7.21021415 7.21021948 7.21021948 7.21021415 7.21020844 7.21021488 7.21025862 7.21038002 7.21063027 7.21106349 7.21173102 7.21267852 7.21392747 7.21545372 7.21723023 7.21911609 7.22056948 7.22156776 7.22156776 7.22156776 7.22156776 7.22156776 7.22156776 7.22156776 7.22156776 7.22156776 7.22156776 7.22156776 7.22156776 7.21952721 7.21777522 7.21628454 7.21494320 7.21384645 7.21298468 7.21233077 7.21186364 7.21154689 7.21133534 7.21119163 7.21109844 7.21105209 7.21105209 7.21109844 7.21119163 7.21133534 7.21154689 7.21186364 7.21233077 7.21298468 7.21384645 7.21494320 7.21628454 7.21777522 7.21952721 7.22156776 7.22156776 7.22156776 7.22156776 7.22156776 7.22156776 7.22156776 7.22156776 7.22156776 7.22156776 7.22156776 7.22156776 7.22156776 7.22156776 7.22156776 7.21996175 7.21879440 7.21741648 7.21629091 7.21533748 7.21454242 7.21393508 7.21349222 7.21316333 7.21290612 7.21272124 7.21262522 7.21262522 7.21272124 7.21290612 7.21316333 7.21349222 7.21393508 7.21454242 7.21533748 7.21629091 7.21741648 7.21879440 7.21996175 7.22156776 7.22156776 7.22156776 7.22156776 7.22156776 7.22156776 7.22156776 7.22156776 7.22156776 7.22156776 7.22156776 7.22156776 7.22156776 7.22156776 7.22156776 7.22156776 7.22156776 7.22156776 7.21985207 7.21888978 7.21792740 7.21706088 7.21641575 7.21594997 7.21557892 7.21522528 7.21494556 7.21479933 7.21479933 7.21494556 7.21522528 7.21557892 7.21594997 7.21641575 7.21706088 7.21792740 7.21888978 7.21985207 7.22156776 7.22156776 7.22156776 7.22156776 7.22156776 7.22156776 7.22156776 7.22156776 7.22156776 7.22156776 7.22156776 7.22156776 7.22156776 7.22156776 7.22156776 7.22156776 7.22156776 7.22156776 7.22156776 7.22156776 7.22156776 7.22156776 7.22041531 7.21955639 7.21904279 7.21870685 7.21840383 7.21789673 7.21748326 7.21728382 7.21728382 7.21748326 7.21789673 7.21840383 7.21870685 7.21904279 7.21955639 7.22041531 7.22156776 7.22156776 7.22156776 7.22156776 7.22156776 7.22156776 7.22156776 7.22156776 7.22156776 7.22156776 7.22156776 7.22156776 7.22156776 7.22156776 7.22156776 7.22156776 7.22156776 7.22156776 7.22156776 7.22156776 7.22156776 7.22156776 7.22156776 7.22156776 7.22156776 7.22156776 7.22156776 7.22156776 7.22156776 7.22047692 7.21988610 7.21966919 7.21966919 7.21988610 7.22047692 7.22156776 7.22156776 7.22156776 7.22156776 7.22156776 7.22156776 7.22156776 7.22156776 7.22156776 7.22156776 7.22156776 7.22156776 7.22156776 7.22156776 7.22156776 7.22156776 7.22156776 7.22156776 7.22156776 7.22156776 7.22156776 7.22156776 7.22156776 7.22156776 7.22156776 7.22156776 7.22156776 7.22156776 7.22156776 7.22156776 7.22156776 7.22156776 7.22156776 7.22156776 7.22156776 7.22156776 7.22156776 7.22156776 7.22156776 7.22156776 7.22156776 7.22156776 7.22156776 7.22156776 7.22156776 7.22156776 7.22156776 7.22156776 7.22156776 7.22156776 7.22156776 7.22156776 7.22156776 7.22156776 7.22156776 7.22156776 7.22156776 7.22156776 7.22156776 7.22156776 7.22156776 7.22156776 7.22156776 7.22156776 7.22156776 7.22156776 7.22156776 7.22156776 7.22156776 7.22156776 7.22156776 7.22156776 7.22156776 7.22156776 7.22156776 7.22156776 7.22156776 7.22156776 7.22156776 7.22156776 7.22156776 7.22156776 7.22156776 7.22156776 7.22156776 7.22156776 7.22156776 7.22156776 7.22156776 7.22156776 7.22156776 7.22156776 7.22156776 7.22156776 7.22156776 7.22156776 7.22156776 7.22156776 7.22156776 7.22156776 7.22156776 7.22156776 7.22156776 7.22156776 7.22156776 7.22156776 7.22156776 7.22156776 7.22156776 7.22156776 7.22156776 7.22156776 7.22156776 7.22156776 7.22156776 7.22156776 7.22156776 7.22156776 7.22156776 7.22156776 7.22156776 7.22156776 7.22156776 7.22156776 7.22156776 7.22156776 7.22156776 7.22156776 7.22156776 7.22156776 7.22156776 7.22156776 7.22156776 7.22156776 7.22156776 7.22156776 7.22156776 7.22156776 7.22156776 7.22156776 7.22156776 7.22156776 7.22156776 7.22156776 7.22156776 7.22156776 7.22156776 7.22156776 7.22156776 7.22156776 7.22156776 7.22156776 7.22156776 7.22156776 7.22156776 7.22156776 7.22156776 7.22156776 7.22156776 7.22156776 7.22156776 7.22156776 7.22156776 7.22156776 7.22156776 7.22156776 7.22156776 7.22156776 7.22156776 7.22156776 7.22156776 7.22156776 7.22156776 7.22156776 7.22156776 7.22156776 7.22156776 7.22156776 7.22156776 7.22156776 7.22156776 7.22156776 7.22156776 7.22156776 7.22156776 7.22156776 7.22156776 7.22156776 7.22156776 7.22156776 7.22156776 7.22156776 7.22156776 7.22156776 7.22156776 7.22156776 7.22156776 7.22156776 7.22156776 7.22156776 7.22156776 7.22156776 7.22156776 7.22156776 7.22156776 7.22156776 7.22156776 7.22156776 7.22156776 7.22156776 7.22156776 7.22156776 7.22156776 7.22156776 7.22156776 7.22156776 7.22156776 7.22156776 7.22156776 7.22156776 7.22156776 7.22156776 7.22156776 7.22156776 7.22156776 7.22156776 7.22156776 7.22156776 7.22156776 7.22156776 7.22156776 7.22156776 7.22156776 7.22156776 7.22156776 7.22156776 7.22156776 7.22156776 7.22156776 7.22156776 7.22156776 7.22156776 7.22156776 7.22156776 7.22156776 7.22156776 7.22156776 7.22156776 7.22156776 7.22156776 7.22156776 7.22156776 7.22156776 7.22156776 7.22156776 7.22156776 7.22156776 7.22156776 7.22156776 7.22156776 7.22156776 7.22156776 7.22156776 7.22156776 7.22156776 7.22156776 7.22156776 7.22156776 7.22156776 7.22156776 7.22156776 7.22156776 7.22156776 7.22156776 7.22156776 7.22156776 7.22156776 7.22156776 7.22156776 7.22156776 7.22156776 7.22156776 7.22156776 7.22156776 7.22156776 7.22156776 7.22156776 7.22156776 7.22156776 7.22156776 7.22156776 7.22156776 7.22156776 7.22156776 7.22156776 7.22156776 7.22156776 7.22156776 7.22156776 7.22156776 7.22156776 7.22156776 7.22156776 7.22156776 7.22156776 7.22156776 7.22156776 7.22156776 7.22156776 7.22156776 7.22156776 7.22156776 7.22156776 7.22156776 7.22156776 7.22156776 7.22156776 7.22156776 7.22156776 7.22156776 7.22156776 7.22156776 7.22156776 7.22156776 7.22156776 7.22156776 7.22156776 7.22156776 7.22156776 7.22156776 7.22156776 7.22156776 7.22156776 7.22156776 7.22156776 7.22156776 7.22156776 