# vtk DataFile Version 3.0
VTK - Matlab export
ASCII
DATASET STRUCTURED_POINTS
DIMENSIONS 40 40 1
SPACING 1 1 1
ORIGIN 0 0 0
POINT_DATA 1600
SCALARS Proofstrength float 1
LOOKUP_TABLE default
142.25514280 142.25514280 142.25514280 142.25514280 142.25514280 142.25514280 142.25514280 142.25514280 142.25514280 142.25514280 142.25514280 142.25514280 142.25514280 142.25514280 142.25514280 142.25514280 142.25514280 142.25514280 142.25514280 142.25514280 142.25514280 142.25514280 142.25514280 142.25514280 142.25514280 142.25514280 142.25514280 142.25514280 142.25514280 142.25514280 142.25514280 142.25514280 142.25514280 142.25514280 142.25514280 142.25514280 142.25514280 142.25514280 142.25514280 142.25514280 142.25514280 142.25514280 142.25514280 142.25514280 142.25514280 142.25514280 142.25514280 142.25514280 142.25514280 142.25514280 142.25514280 142.25514280 142.25514280 142.25514280 142.25514280 142.25514280 142.25514280 142.25514280 142.25514280 142.25514280 142.25514280 142.25514280 142.25514280 142.25514280 142.25514280 142.25514280 142.25514280 142.25514280 142.25514280 142.25514280 142.25514280 142.25514280 142.25514280 142.25514280 142.25514280 142.25514280 142.25514280 142.25514280 142.25514280 142.25514280 142.25514280 142.25514280 142.25514280 142.25514280 142.25514280 142.25514280 142.25514280 142.25514280 142.25514280 142.25514280 142.25514280 142.25514280 142.25514280 142.25514280 142.25514280 142.25514280 142.25514280 142.25514280 142.25514280 142.25514280 142.25514280 142.25514280 142.25514280 142.25514280 142.25514280 142.25514280 142.25514280 142.25514280 142.25514280 142.25514280 142.25514280 142.25514280 142.25514280 142.25514280 142.25514280 142.25514280 142.25514280 142.25514280 142.25514280 142.25514280 142.25514280 142.25514280 142.25514280 142.25514280 142.25514280 142.25514280 142.25514280 142.25514280 142.25514280 142.25514280 142.25514280 142.25514280 142.25514280 142.25514280 142.25514280 142.25514280 142.25514280 142.25514280 142.25514280 142.25514280 142.25514280 142.25514280 142.25514280 142.25514280 142.25514280 142.25514280 142.25514280 142.25514280 142.25514280 142.25514280 142.25514280 142.25514280 142.25514280 142.25514280 142.25514280 142.25514280 142.25514280 142.25514280 142.25514280 142.25514280 142.25514280 142.25514280 142.25514280 142.25514280 142.25514280 142.25514280 142.25514280 142.25514280 142.25514280 142.25514280 142.25514280 142.25514280 142.25514280 142.25514280 142.25514280 142.25514280 142.25514280 142.25514280 142.25514280 142.25514280 142.25514280 142.25514280 142.25514280 142.25514280 142.25514280 142.25514280 142.25514280 142.25514280 142.25514280 142.25514280 142.25514280 142.25514280 142.25514280 142.25514280 142.25514280 142.25514280 142.25514280 142.25514280 142.25514280 142.25514280 142.25514280 142.25514280 142.25514280 142.25514280 142.25514280 142.25514280 142.25514280 142.25514280 142.25514280 142.25514280 142.25514280 142.25514280 142.25514280 142.25514280 142.25514280 142.25514280 142.25514280 142.25514280 142.25514280 142.25514280 142.25514280 142.25514280 142.25514280 142.25514280 142.25514280 142.25514280 142.25514280 142.25514280 142.25514280 142.25514280 142.25514280 142.25514280 142.25514280 142.25514280 142.25514280 142.25514280 142.25514280 142.25514280 142.25514280 142.25514280 142.25514280 142.25514280 142.25514280 142.25514280 142.25514280 142.25514280 142.25514280 142.25514280 142.25514280 142.25514280 142.25514280 142.25514280 142.25514280 142.25514280 142.25514280 142.25514280 142.25514280 142.25514280 142.25514280 142.25514280 142.25514280 142.25514280 142.25514280 142.25514280 142.25514280 142.25514280 142.25514280 142.25514280 142.25514280 142.25514280 142.25514280 142.25514280 142.25514280 142.25514280 142.25514280 142.25514280 142.25514280 142.25514280 142.25514280 142.25514280 142.25514280 142.25514280 142.25514280 142.25514280 142.25514280 142.25514280 142.25514280 142.25514280 142.25514280 142.25514280 142.25514280 142.25514280 142.25514280 142.25514280 142.25514280 142.25514280 142.25514280 142.25514280 142.25514280 142.25514280 142.25514280 142.25514280 142.25514280 142.25514280 142.25514280 142.25514280 142.25514280 142.25514280 142.25514280 142.25514280 142.25514280 142.25514280 142.25514280 142.25514280 142.25514280 142.25514280 142.25514280 142.25514280 142.25514280 142.25514280 142.25514280 142.25514280 142.25514280 142.25514280 142.25514280 142.25514280 142.25514280 142.25514280 142.25514280 142.25514280 142.25514280 142.25514280 142.25514280 142.25514280 142.25514280 142.25514280 142.25514280 142.25951701 142.26198673 142.26292330 142.26292330 142.26198673 142.25951701 142.25514280 142.25514280 142.25514280 142.25514280 142.25514280 142.25514280 142.25514280 142.25514280 142.25514280 142.25514280 142.25514280 142.25514280 142.25514280 142.25514280 142.25514280 142.25514280 142.25514280 142.25514280 142.25514280 142.25514280 142.25514280 142.25514280 142.25514280 142.25514280 142.25514280 142.25514280 142.25514280 142.25514280 142.25514280 142.25975855 142.26318382 142.26512469 142.26628356 142.26732829 142.26930280 142.27099453 142.27183175 142.27183175 142.27099453 142.26930280 142.26732829 142.26628356 142.26512469 142.26318382 142.25975855 142.25514280 142.25514280 142.25514280 142.25514280 142.25514280 142.25514280 142.25514280 142.25514280 142.25514280 142.25514280 142.25514280 142.25514280 142.25514280 142.25514280 142.25514280 142.25514280 142.25514280 142.25514280 142.25514280 142.25514280 142.25514280 142.25514280 142.26196568 142.26566770 142.26925492 142.27234803 142.27442830 142.27573087 142.27671197 142.27778032 142.27871545 142.27922640 142.27922640 142.27871545 142.27778032 142.27671197 142.27573087 142.27442830 142.27234803 142.26925492 142.26566770 142.26196568 142.25514280 142.25514280 142.25514280 142.25514280 142.25514280 142.25514280 142.25514280 142.25514280 142.25514280 142.25514280 142.25514280 142.25514280 142.25514280 142.25514280 142.25514280 142.25514280 142.25514280 142.25514280 142.26150876 142.26594229 142.27101593 142.27479440 142.27765734 142.27975268 142.28103991 142.28171420 142.28209202 142.28242559 142.28272923 142.28290836 142.28290836 142.28272923 142.28242559 142.28209202 142.28171420 142.28103991 142.27975268 142.27765734 142.27479440 142.27101593 142.26594229 142.26150876 142.25514280 142.25514280 142.25514280 142.25514280 142.25514280 142.25514280 142.25514280 142.25514280 142.25514280 142.25514280 142.25514280 142.25514280 142.25514280 142.25514280 142.25514280 142.26316623 142.26971259 142.27472842 142.27870699 142.28135777 142.28288740 142.28357926 142.28365102 142.28335018 142.28293208 142.28258354 142.28236869 142.28227238 142.28227238 142.28236869 142.28258354 142.28293208 142.28335018 142.28365102 142.28357926 142.28288740 142.28135777 142.27870699 142.27472842 142.26971259 142.26316623 142.25514280 142.25514280 142.25514280 142.25514280 142.25514280 142.25514280 142.25514280 142.25514280 142.25514280 142.25514280 142.25514280 142.25514280 142.25924913 142.26491162 142.27174890 142.27738880 142.28129305 142.28358191 142.28445321 142.28428015 142.28345937 142.28231148 142.28109054 142.27999052 142.27913368 142.27856705 142.27828936 142.27828936 142.27856705 142.27913368 142.27999052 142.28109054 142.28231148 142.28345937 142.28428015 142.28445321 142.28358191 142.28129305 142.27738880 142.27174890 142.26491162 142.25924913 142.25514280 142.25514280 142.25514280 142.25514280 142.25514280 142.25514280 142.25514280 142.25514280 142.25514280 142.25514280 142.26502266 142.27275902 142.27895497 142.28307454 142.28504775 142.28523393 142.28415221 142.28234469 142.28026219 142.27821619 142.27639835 142.27491477 142.27381081 142.27309013 142.27273682 142.27273682 142.27309013 142.27381081 142.27491477 142.27639835 142.27821619 142.28026219 142.28234469 142.28415221 142.28523393 142.28504775 142.28307454 142.27895497 142.27275902 142.26502266 142.25514280 142.25514280 142.25514280 142.25514280 142.25514280 142.25514280 142.25514280 142.25514280 142.25514280 142.26330984 142.27215574 142.27940739 142.28421051 142.28631242 142.28606106 142.28416418 142.28138559 142.27835311 142.27548370 142.27299758 142.27097735 142.26942836 142.26832041 142.26761258 142.26726893 142.26726893 142.26761258 142.26832041 142.26942836 142.27097735 142.27299758 142.27548370 142.27835311 142.28138559 142.28416418 142.28606106 142.28631242 142.28421051 142.27940739 142.27215574 142.26330984 142.25514280 142.25514280 142.25514280 142.25514280 142.25514280 142.25514280 142.25514280 142.26123143 142.26980382 142.27819138 142.28436530 142.28740646 142.28738188 142.28505359 142.28144503 142.27746730 142.27373640 142.27056337 142.26803573 142.26611665 142.26472122 142.26376056 142.26316171 142.26287480 142.26287480 142.26316171 142.26376056 142.26472122 142.26611665 142.26803573 142.27056337 142.27373640 142.27746730 142.28144503 142.28505359 142.28738188 142.28740646 142.28436530 142.27819138 142.26980382 142.26123143 142.25514280 142.25514280 142.25514280 142.25514280 142.25514280 142.25514280 142.26467860 142.27435964 142.28250901 142.28755762 142.28890921 142.28703314 142.28306949 142.27827354 142.27361033 142.26961819 142.26647391 142.26413348 142.26245941 142.26130156 142.26053478 142.26006945 142.25984991 142.25984991 142.26006945 142.26053478 142.26130156 142.26245941 142.26413348 142.26647391 142.26961819 142.27361033 142.27827354 142.28306949 142.28703314 142.28890921 142.28755762 142.28250901 142.27435964 142.26467860 142.25514280 142.25514280 142.25514280 142.25514280 142.25514280 142.25514280 142.26685035 142.27726656 142.28517896 142.28930638 142.28936344 142.28616204 142.28112133 142.27563510 142.27066478 142.26665710 142.26367237 142.26156686 142.26013517 142.25918878 142.25858490 142.25822822 142.25806265 142.25806265 142.25822822 142.25858490 142.25918878 142.26013517 142.26156686 142.26367237 142.26665710 142.27066478 142.27563510 142.28112133 142.28616204 142.28936344 142.28930638 142.28517896 142.27726656 142.26685035 142.25514280 142.25514280 142.25514280 142.25514280 142.25514280 142.25872361 142.26864916 142.27882508 142.28645839 142.29004468 142.28940201 142.28551862 142.27995565 142.27416713 142.26909798 142.26513604 142.26227557 142.26032041 142.25903209 142.25820532 142.25769107 142.25739317 142.25725652 142.25725652 142.25739317 142.25769107 142.25820532 142.25903209 142.26032041 142.26227557 142.26513604 142.26909798 142.27416713 142.27995565 142.28551862 142.28940201 142.29004468 142.28645839 142.27882508 142.26864916 142.25872361 142.25514280 142.25514280 142.25514280 142.25514280 142.25872361 142.26864916 142.27882508 142.28645839 142.29004468 142.28940201 142.28551862 142.27995565 142.27416713 142.26909798 142.26513604 142.26227557 142.26032041 142.25903209 142.25820532 142.25769107 142.25739317 142.25725652 142.25725652 142.25739317 142.25769107 142.25820532 142.25903209 142.26032041 142.26227557 142.26513604 142.26909798 142.27416713 142.27995565 142.28551862 142.28940201 142.29004468 142.28645839 142.27882508 142.26864916 142.25872361 142.25514280 142.25514280 142.25514280 142.25514280 142.25514280 142.26685035 142.27726656 142.28517896 142.28930638 142.28936344 142.28616204 142.28112133 142.27563510 142.27066478 142.26665710 142.26367237 142.26156686 142.26013517 142.25918878 142.25858490 142.25822822 142.25806265 142.25806265 142.25822822 142.25858490 142.25918878 142.26013517 142.26156686 142.26367237 142.26665710 142.27066478 142.27563510 142.28112133 142.28616204 142.28936344 142.28930638 142.28517896 142.27726656 142.26685035 142.25514280 142.25514280 142.25514280 142.25514280 142.25514280 142.25514280 142.26467860 142.27435964 142.28250901 142.28755762 142.28890921 142.28703314 142.28306949 142.27827354 142.27361033 142.26961819 142.26647391 142.26413348 142.26245941 142.26130156 142.26053478 142.26006945 142.25984991 142.25984991 142.26006945 142.26053478 142.26130156 142.26245941 142.26413348 142.26647391 142.26961819 142.27361033 142.27827354 142.28306949 142.28703314 142.28890921 142.28755762 142.28250901 142.27435964 142.26467860 142.25514280 142.25514280 142.25514280 142.25514280 142.25514280 142.25514280 142.26123143 142.26980382 142.27819138 142.28436530 142.28740646 142.28738188 142.28505359 142.28144503 142.27746730 142.27373640 142.27056337 142.26803573 142.26611665 142.26472122 142.26376056 142.26316171 142.26287480 142.26287480 142.26316171 142.26376056 142.26472122 142.26611665 142.26803573 142.27056337 142.27373640 142.27746730 142.28144503 142.28505359 142.28738188 142.28740646 142.28436530 142.27819138 142.26980382 142.26123143 142.25514280 142.25514280 142.25514280 142.25514280 142.25514280 142.25514280 142.25514280 142.26330984 142.27215574 142.27940739 142.28421051 142.28631242 142.28606106 142.28416418 142.28138559 142.27835311 142.27548370 142.27299758 142.27097735 142.26942836 142.26832041 142.26761258 142.26726893 142.26726893 142.26761258 142.26832041 142.26942836 142.27097735 142.27299758 142.27548370 142.27835311 142.28138559 142.28416418 142.28606106 142.28631242 142.28421051 142.27940739 142.27215574 142.26330984 142.25514280 142.25514280 142.25514280 142.25514280 142.25514280 142.25514280 142.25514280 142.25514280 142.25514280 142.26502266 142.27275902 142.27895497 142.28307454 142.28504775 142.28523393 142.28415221 142.28234469 142.28026219 142.27821619 142.27639835 142.27491477 142.27381081 142.27309013 142.27273682 142.27273682 142.27309013 142.27381081 142.27491477 142.27639835 142.27821619 142.28026219 142.28234469 142.28415221 142.28523393 142.28504775 142.28307454 142.27895497 142.27275902 142.26502266 142.25514280 142.25514280 142.25514280 142.25514280 142.25514280 142.25514280 142.25514280 142.25514280 142.25514280 142.25514280 142.25924913 142.26491162 142.27174890 142.27738880 142.28129305 142.28358191 142.28445321 142.28428015 142.28345937 142.28231148 142.28109054 142.27999052 142.27913368 142.27856705 142.27828936 142.27828936 142.27856705 142.27913368 142.27999052 142.28109054 142.28231148 142.28345937 142.28428015 142.28445321 142.28358191 142.28129305 142.27738880 142.27174890 142.26491162 142.25924913 142.25514280 142.25514280 142.25514280 142.25514280 142.25514280 142.25514280 142.25514280 142.25514280 142.25514280 142.25514280 142.25514280 142.25514280 142.26316623 142.26971259 142.27472842 142.27870699 142.28135777 142.28288740 142.28357926 142.28365102 142.28335018 142.28293208 142.28258354 142.28236869 142.28227238 142.28227238 142.28236869 142.28258354 142.28293208 142.28335018 142.28365102 142.28357926 142.28288740 142.28135777 142.27870699 142.27472842 142.26971259 142.26316623 142.25514280 142.25514280 142.25514280 142.25514280 142.25514280 142.25514280 142.25514280 142.25514280 142.25514280 142.25514280 142.25514280 142.25514280 142.25514280 142.25514280 142.25514280 142.26150876 142.26594229 142.27101593 142.27479440 142.27765734 142.27975268 142.28103991 142.28171420 142.28209202 142.28242559 142.28272923 142.28290836 142.28290836 142.28272923 142.28242559 142.28209202 142.28171420 142.28103991 142.27975268 142.27765734 142.27479440 142.27101593 142.26594229 142.26150876 142.25514280 142.25514280 142.25514280 142.25514280 142.25514280 142.25514280 142.25514280 142.25514280 142.25514280 142.25514280 142.25514280 142.25514280 142.25514280 142.25514280 142.25514280 142.25514280 142.25514280 142.25514280 142.26196568 142.26566770 142.26925492 142.27234803 142.27442830 142.27573087 142.27671197 142.27778032 142.27871545 142.27922640 142.27922640 142.27871545 142.27778032 142.27671197 142.27573087 142.27442830 142.27234803 142.26925492 142.26566770 142.26196568 142.25514280 142.25514280 142.25514280 142.25514280 142.25514280 142.25514280 142.25514280 142.25514280 142.25514280 142.25514280 142.25514280 142.25514280 142.25514280 142.25514280 142.25514280 142.25514280 142.25514280 142.25514280 142.25514280 142.25514280 142.25514280 142.25514280 142.25975855 142.26318382 142.26512469 142.26628356 142.26732829 142.26930280 142.27099453 142.27183175 142.27183175 142.27099453 142.26930280 142.26732829 142.26628356 142.26512469 142.26318382 142.25975855 142.25514280 142.25514280 142.25514280 142.25514280 142.25514280 142.25514280 142.25514280 142.25514280 142.25514280 142.25514280 142.25514280 142.25514280 142.25514280 142.25514280 142.25514280 142.25514280 142.25514280 142.25514280 142.25514280 142.25514280 142.25514280 142.25514280 142.25514280 142.25514280 142.25514280 142.25514280 142.25514280 142.25514280 142.25514280 142.25951701 142.26198673 142.26292330 142.26292330 142.26198673 142.25951701 142.25514280 142.25514280 142.25514280 142.25514280 142.25514280 142.25514280 142.25514280 142.25514280 142.25514280 142.25514280 142.25514280 142.25514280 142.25514280 142.25514280 142.25514280 142.25514280 142.25514280 142.25514280 142.25514280 142.25514280 142.25514280 142.25514280 142.25514280 142.25514280 142.25514280 142.25514280 142.25514280 142.25514280 142.25514280 142.25514280 142.25514280 142.25514280 142.25514280 142.25514280 142.25514280 142.25514280 142.25514280 142.25514280 142.25514280 142.25514280 142.25514280 142.25514280 142.25514280 142.25514280 142.25514280 142.25514280 142.25514280 142.25514280 142.25514280 142.25514280 142.25514280 142.25514280 142.25514280 142.25514280 142.25514280 142.25514280 142.25514280 142.25514280 142.25514280 142.25514280 142.25514280 142.25514280 142.25514280 142.25514280 142.25514280 142.25514280 142.25514280 142.25514280 142.25514280 142.25514280 142.25514280 142.25514280 142.25514280 142.25514280 142.25514280 142.25514280 142.25514280 142.25514280 142.25514280 142.25514280 142.25514280 142.25514280 142.25514280 142.25514280 142.25514280 142.25514280 142.25514280 142.25514280 142.25514280 142.25514280 142.25514280 142.25514280 142.25514280 142.25514280 142.25514280 142.25514280 142.25514280 142.25514280 142.25514280 142.25514280 142.25514280 142.25514280 142.25514280 142.25514280 142.25514280 142.25514280 142.25514280 142.25514280 142.25514280 142.25514280 142.25514280 142.25514280 142.25514280 142.25514280 142.25514280 142.25514280 142.25514280 142.25514280 142.25514280 142.25514280 142.25514280 142.25514280 142.25514280 142.25514280 142.25514280 142.25514280 142.25514280 142.25514280 142.25514280 142.25514280 142.25514280 142.25514280 142.25514280 142.25514280 142.25514280 142.25514280 142.25514280 142.25514280 142.25514280 142.25514280 142.25514280 142.25514280 142.25514280 142.25514280 142.25514280 142.25514280 142.25514280 142.25514280 142.25514280 142.25514280 142.25514280 142.25514280 142.25514280 142.25514280 142.25514280 142.25514280 142.25514280 142.25514280 142.25514280 142.25514280 142.25514280 142.25514280 142.25514280 142.25514280 142.25514280 142.25514280 142.25514280 142.25514280 142.25514280 142.25514280 142.25514280 142.25514280 142.25514280 142.25514280 142.25514280 142.25514280 142.25514280 142.25514280 142.25514280 142.25514280 142.25514280 142.25514280 142.25514280 142.25514280 142.25514280 142.25514280 142.25514280 142.25514280 142.25514280 142.25514280 142.25514280 142.25514280 142.25514280 142.25514280 142.25514280 142.25514280 142.25514280 142.25514280 142.25514280 142.25514280 142.25514280 142.25514280 142.25514280 142.25514280 142.25514280 142.25514280 142.25514280 142.25514280 142.25514280 142.25514280 142.25514280 142.25514280 142.25514280 142.25514280 142.25514280 142.25514280 142.25514280 142.25514280 142.25514280 142.25514280 142.25514280 142.25514280 142.25514280 142.25514280 142.25514280 142.25514280 142.25514280 142.25514280 142.25514280 142.25514280 142.25514280 142.25514280 142.25514280 142.25514280 142.25514280 142.25514280 142.25514280 142.25514280 142.25514280 142.25514280 142.25514280 142.25514280 142.25514280 142.25514280 142.25514280 142.25514280 142.25514280 142.25514280 142.25514280 142.25514280 142.25514280 142.25514280 142.25514280 142.25514280 142.25514280 142.25514280 142.25514280 142.25514280 142.25514280 142.25514280 142.25514280 142.25514280 142.25514280 142.25514280 142.25514280 142.25514280 142.25514280 142.25514280 142.25514280 142.25514280 142.25514280 142.25514280 142.25514280 142.25514280 142.25514280 142.25514280 142.25514280 142.25514280 142.25514280 142.25514280 142.25514280 142.25514280 142.25514280 142.25514280 142.25514280 142.25514280 142.25514280 142.25514280 142.25514280 142.25514280 142.25514280 142.25514280 142.25514280 142.25514280 142.25514280 142.25514280 142.25514280 142.25514280 142.25514280 142.25514280 142.25514280 142.25514280 142.25514280 142.25514280 142.25514280 142.25514280 142.25514280 142.25514280 142.25514280 142.25514280 142.25514280 142.25514280 142.25514280 142.25514280 142.25514280 142.25514280 142.25514280 142.25514280 142.25514280 142.25514280 142.25514280 142.25514280 142.25514280 142.25514280 142.25514280 142.25514280 142.25514280 142.25514280 142.25514280 142.25514280 142.25514280 142.25514280 142.25514280 142.25514280 142.25514280 142.25514280 142.25514280 