# vtk DataFile Version 3.0
VTK - Matlab export
ASCII
DATASET STRUCTURED_POINTS
DIMENSIONS 40 40 1
SPACING 1 1 1
ORIGIN 0 0 0
POINT_DATA 1600
SCALARS lambda-2 float 1
LOOKUP_TABLE default
7.22156776 7.22156776 7.22156776 7.22156776 7.22156776 7.22156776 7.22156776 7.22156776 7.22156776 7.22156776 7.22156776 7.22156776 7.22156776 7.22156776 7.22156776 7.22156776 7.22156776 7.22156776 7.22156776 7.22156776 7.22156776 7.22156776 7.22156776 7.22156776 7.22156776 7.22156776 7.22156776 7.22156776 7.22156776 7.22156776 7.22156776 7.22156776 7.22156776 7.22156776 7.22156776 7.22156776 7.22156776 7.22156776 7.22156776 7.22156776 7.22156776 7.22156776 7.22156776 7.22156776 7.22156776 7.22156776 7.22156776 7.22156776 7.22156776 7.22156776 7.22156776 7.22156776 7.22156776 7.22156776 7.22156776 7.22156776 7.22156776 7.22156776 7.22156776 7.22156776 7.22156776 7.22156776 7.22156776 7.22156776 7.22156776 7.22156776 7.22156776 7.22156776 7.22156776 7.22156776 7.22156776 7.22156776 7.22156776 7.22156776 7.22156776 7.22156776 7.22156776 7.22156776 7.22156776 7.22156776 7.22156776 7.22156776 7.22156776 7.22156776 7.22156776 7.22156776 7.22156776 7.22156776 7.22156776 7.22156776 7.22156776 7.22156776 7.22156776 7.22156776 7.22156776 7.22156776 7.22156776 7.22156776 7.22156776 7.22156776 7.22156776 7.22156776 7.22156776 7.22156776 7.22156776 7.22156776 7.22156776 7.22156776 7.22156776 7.22156776 7.22156776 7.22156776 7.22156776 7.22156776 7.22156776 7.22156776 7.22156776 7.22156776 7.22156776 7.22156776 7.22156776 7.22156776 7.22156776 7.22156776 7.22156776 7.22156776 7.22156776 7.22156776 7.22156776 7.22156776 7.22156776 7.22156776 7.22156776 7.22156776 7.22156776 7.22156776 7.22156776 7.22156776 7.22156776 7.22156776 7.22156776 7.22156776 7.22156776 7.22156776 7.22156776 7.22156776 7.22156776 7.22156776 7.22156776 7.22156776 7.22156776 7.22156776 7.22156776 7.22156776 7.22156776 7.22156776 7.22156776 7.22156776 7.22156776 7.22156776 7.22156776 7.22156776 7.22156776 7.22156776 7.22156776 7.22156776 7.22156776 7.22156776 7.22156776 7.22156776 7.22156776 7.22156776 7.22156776 7.22156776 7.22156776 7.22156776 7.22156776 7.22156776 7.22156776 7.22156776 7.22156776 7.22156776 7.22156776 7.22156776 7.22156776 7.22156776 7.22156776 7.22156776 7.22156776 7.22156776 7.22156776 7.22156776 7.22156776 7.22156776 7.22156776 7.22156776 7.22156776 7.22156776 7.22156776 7.22156776 7.22156776 7.22156776 7.22156776 7.22156776 7.22156776 7.22156776 7.22156776 7.22156776 7.22156776 7.22156776 7.22156776 7.22156776 7.22156776 7.22156776 7.22156776 7.22156776 7.22156776 7.22156776 7.22156776 7.22156776 7.22156776 7.22156776 7.22156776 7.22156776 7.22156776 7.22156776 7.22156776 7.22156776 7.22156776 7.22156776 7.22156776 7.22156776 7.22156776 7.22156776 7.22156776 7.22156776 7.22156776 7.22156776 7.22156776 7.22156776 7.22156776 7.22156776 7.22156776 7.22156776 7.22156776 7.22156776 7.22156776 7.22156776 7.22156776 7.22156776 7.22156776 7.22156776 7.22156776 7.22156776 7.22156776 7.22156776 7.22156776 7.22156776 7.22156776 7.22156776 7.22156776 7.22156776 7.22156776 7.22156776 7.22156776 7.22156776 7.22156776 7.22156776 7.22156776 7.22156776 7.22156776 7.22156776 7.22156776 7.22156776 7.22156776 7.22156776 7.22156776 7.22156776 7.22156776 7.22156776 7.22156776 7.22156776 7.22156776 7.22156776 7.22156776 7.22156776 7.22156776 7.22156776 7.22156776 7.22156776 7.22156776 7.22156776 7.22156776 7.22156776 7.22156776 7.22156776 7.22156776 7.22156776 7.22156776 7.22156776 7.22156776 7.22156776 7.22156776 7.22156776 7.22156776 7.22156776 7.22156776 7.22156776 7.22156776 7.22156776 7.22156776 7.22156776 7.22156776 7.22156776 7.22156776 7.22156776 7.22156776 7.22156776 7.22156776 7.22156776 7.22156776 7.22156776 7.22156776 7.22156776 7.22156776 7.22156776 7.22156776 7.22156776 7.22156776 7.22156776 7.22156776 7.22156776 7.22156776 7.22156776 7.22156776 7.22156776 7.22156776 7.21250834 7.20675047 7.20434465 7.20434465 7.20675047 7.21250834 7.22156776 7.22156776 7.22156776 7.22156776 7.22156776 7.22156776 7.22156776 7.22156776 7.22156776 7.22156776 7.22156776 7.22156776 7.22156776 7.22156776 7.22156776 7.22156776 7.22156776 7.22156776 7.22156776 7.22156776 7.22156776 7.22156776 7.22156776 7.22156776 7.22156776 7.22156776 7.22156776 7.22156776 7.22156776 7.21215048 7.20522651 7.20185931 7.20047951 7.19920185 7.19535439 7.19150909 7.18944872 7.18944872 7.19150909 7.19535439 7.19920185 7.20047951 7.20185931 7.20522651 7.21215048 7.22156776 7.22156776 7.22156776 7.22156776 7.22156776 7.22156776 7.22156776 7.22156776 7.22156776 7.22156776 7.22156776 7.22156776 7.22156776 7.22156776 7.22156776 7.22156776 7.22156776 7.22156776 7.22156776 7.22156776 7.22156776 7.22156776 7.20784469 7.20112244 7.19516395 7.19055716 7.18847237 7.18818694 7.18821634 7.18728206 7.18589729 7.18501744 7.18501744 7.18589729 7.18728206 7.18821634 7.18818694 7.18847237 7.19055716 7.19516395 7.20112244 7.20784469 7.22156776 7.22156776 7.22156776 7.22156776 7.22156776 7.22156776 7.22156776 7.22156776 7.22156776 7.22156776 7.22156776 7.22156776 7.22156776 7.22156776 7.22156776 7.22156776 7.22156776 7.22156776 7.20885695 7.20093839 7.19266448 7.18821643 7.18624917 7.18582676 7.18678998 7.18855610 7.19024100 7.19120616 7.19153124 7.19159768 7.19159768 7.19153124 7.19120616 7.19024100 7.18855610 7.18678998 7.18582676 7.18624917 7.18821643 7.19266448 7.20093839 7.20885695 7.22156776 7.22156776 7.22156776 7.22156776 7.22156776 7.22156776 7.22156776 7.22156776 7.22156776 7.22156776 7.22156776 7.22156776 7.22156776 7.22156776 7.22156776 7.20619185 7.19492845 7.18861099 7.18571995 7.18611247 7.18842528 7.19142485 7.19454393 7.19742573 7.19974723 7.20133754 7.20226963 7.20269947 7.20269947 7.20226963 7.20133754 7.19974723 7.19742573 7.19454393 7.19142485 7.18842528 7.18611247 7.18571995 7.18861099 7.19492845 7.20619185 7.22156776 7.22156776 7.22156776 7.22156776 7.22156776 7.22156776 7.22156776 7.22156776 7.22156776 7.22156776 7.22156776 7.22156776 7.21329196 7.20302851 7.19241773 7.18651830 7.18568886 7.18826647 7.19265217 7.19740324 7.20162757 7.20504956 7.20768180 7.20959904 7.21089939 7.21169966 7.21208560 7.21208560 7.21169966 7.21089939 7.20959904 7.20768180 7.20504956 7.20162757 7.19740324 7.19265217 7.18826647 7.18568886 7.18651830 7.19241773 7.20302851 7.21329196 7.22156776 7.22156776 7.22156776 7.22156776 7.22156776 7.22156776 7.22156776 7.22156776 7.22156776 7.22156776 7.20268339 7.19094067 7.18548808 7.18598453 7.19045136 7.19647153 7.20234000 7.20718634 7.21079326 7.21332558 7.21505446 7.21621277 7.21696890 7.21743230 7.21765685 7.21765685 7.21743230 7.21696890 7.21621277 7.21505446 7.21332558 7.21079326 7.20718634 7.20234000 7.19647153 7.19045136 7.18598453 7.18548808 7.19094067 7.20268339 7.22156776 7.22156776 7.22156776 7.22156776 7.22156776 7.22156776 7.22156776 7.22156776 7.22156776 7.20537816 7.19111469 7.18448017 7.18543517 7.19125789 7.19869841 7.20549890 7.21072808 7.21433994 7.21666946 7.21811854 7.21901123 7.21956427 7.21990884 7.22011593 7.22021564 7.22021564 7.22011593 7.21990884 7.21956427 7.21901123 7.21811854 7.21666946 7.21433994 7.21072808 7.20549890 7.19869841 7.19125789 7.18543517 7.18448017 7.19111469 7.20537816 7.22156776 7.22156776 7.22156776 7.22156776 7.22156776 7.22156776 7.22156776 7.20857523 7.19326093 7.18379715 7.18342314 7.18981894 7.19864160 7.20662309 7.21245841 7.21619886 7.21840461 7.21964409 7.22032837 7.22070939 7.22092757 7.22105673 7.22113235 7.22116834 7.22116834 7.22113235 7.22105673 7.22092757 7.22070939 7.22032837 7.21964409 7.21840461 7.21619886 7.21245841 7.20662309 7.19864160 7.18981894 7.18342314 7.18379715 7.19326093 7.20857523 7.22156776 7.22156776 7.22156776 7.22156776 7.22156776 7.22156776 7.20172877 7.18638069 7.18110297 7.18579506 7.19553642 7.20523358 7.21237202 7.21674393 7.21911694 7.22031182 7.22089202 7.22117348 7.22131407 7.22138808 7.22142953 7.22145308 7.22146412 7.22146412 7.22145308 7.22142953 7.22138808 7.22131407 7.22117348 7.22089202 7.22031182 7.21911694 7.21674393 7.21237202 7.20523358 7.19553642 7.18579506 7.18110297 7.18638069 7.20172877 7.22156776 7.22156776 7.22156776 7.22156776 7.22156776 7.22156776 7.19798397 7.18322171 7.18111654 7.18900947 7.20025704 7.20971656 7.21574894 7.21894543 7.22043445 7.22107332 7.22133766 7.22144818 7.22149686 7.22152015 7.22153242 7.22153918 7.22154231 7.22154231 7.22153918 7.22153242 7.22152015 7.22149686 7.22144818 7.22133766 7.22107332 7.22043445 7.21894543 7.21574894 7.20971656 7.20025704 7.18900947 7.18111654 7.18322171 7.19798397 7.22156776 7.22156776 7.22156776 7.22156776 7.22156776 7.21394824 7.19468865 7.18178461 7.18165781 7.19107721 7.20280340 7.21188743 7.21723420 7.21982362 7.22090889 7.22132028 7.22146838 7.22152201 7.22154275 7.22155172 7.22155617 7.22155859 7.22155970 7.22155970 7.22155859 7.22155617 7.22155172 7.22154275 7.22152201 7.22146838 7.22132028 7.22090889 7.21982362 7.21723420 7.21188743 7.20280340 7.19107721 7.18165781 7.18178461 7.19468865 7.21394824 7.22156776 7.22156776 7.22156776 7.22156776 7.21394824 7.19468865 7.18178461 7.18165781 7.19107721 7.20280340 7.21188743 7.21723420 7.21982362 7.22090889 7.22132028 7.22146838 7.22152201 7.22154275 7.22155172 7.22155617 7.22155859 7.22155970 7.22155970 7.22155859 7.22155617 7.22155172 7.22154275 7.22152201 7.22146838 7.22132028 7.22090889 7.21982362 7.21723420 7.21188743 7.20280340 7.19107721 7.18165781 7.18178461 7.19468865 7.21394824 7.22156776 7.22156776 7.22156776 7.22156776 7.22156776 7.19798397 7.18322171 7.18111654 7.18900947 7.20025704 7.20971656 7.21574894 7.21894543 7.22043445 7.22107332 7.22133766 7.22144818 7.22149686 7.22152015 7.22153242 7.22153918 7.22154231 7.22154231 7.22153918 7.22153242 7.22152015 7.22149686 7.22144818 7.22133766 7.22107332 7.22043445 7.21894543 7.21574894 7.20971656 7.20025704 7.18900947 7.18111654 7.18322171 7.19798397 7.22156776 7.22156776 7.22156776 7.22156776 7.22156776 7.22156776 7.20172877 7.18638069 7.18110297 7.18579506 7.19553642 7.20523358 7.21237202 7.21674393 7.21911694 7.22031182 7.22089202 7.22117348 7.22131407 7.22138808 7.22142953 7.22145308 7.22146412 7.22146412 7.22145308 7.22142953 7.22138808 7.22131407 7.22117348 7.22089202 7.22031182 7.21911694 7.21674393 7.21237202 7.20523358 7.19553642 7.18579506 7.18110297 7.18638069 7.20172877 7.22156776 7.22156776 7.22156776 7.22156776 7.22156776 7.22156776 7.20857523 7.19326093 7.18379715 7.18342314 7.18981894 7.19864160 7.20662309 7.21245841 7.21619886 7.21840461 7.21964409 7.22032837 7.22070939 7.22092757 7.22105673 7.22113235 7.22116834 7.22116834 7.22113235 7.22105673 7.22092757 7.22070939 7.22032837 7.21964409 7.21840461 7.21619886 7.21245841 7.20662309 7.19864160 7.18981894 7.18342314 7.18379715 7.19326093 7.20857523 7.22156776 7.22156776 7.22156776 7.22156776 7.22156776 7.22156776 7.22156776 7.20537816 7.19111469 7.18448017 7.18543517 7.19125789 7.19869841 7.20549890 7.21072808 7.21433994 7.21666946 7.21811854 7.21901123 7.21956427 7.21990884 7.22011593 7.22021564 7.22021564 7.22011593 7.21990884 7.21956427 7.21901123 7.21811854 7.21666946 7.21433994 7.21072808 7.20549890 7.19869841 7.19125789 7.18543517 7.18448017 7.19111469 7.20537816 7.22156776 7.22156776 7.22156776 7.22156776 7.22156776 7.22156776 7.22156776 7.22156776 7.22156776 7.20268339 7.19094067 7.18548808 7.18598453 7.19045136 7.19647153 7.20234000 7.20718634 7.21079326 7.21332558 7.21505446 7.21621277 7.21696890 7.21743230 7.21765685 7.21765685 7.21743230 7.21696890 7.21621277 7.21505446 7.21332558 7.21079326 7.20718634 7.20234000 7.19647153 7.19045136 7.18598453 7.18548808 7.19094067 7.20268339 7.22156776 7.22156776 7.22156776 7.22156776 7.22156776 7.22156776 7.22156776 7.22156776 7.22156776 7.22156776 7.21329196 7.20302851 7.19241773 7.18651830 7.18568886 7.18826647 7.19265217 7.19740324 7.20162757 7.20504956 7.20768180 7.20959904 7.21089939 7.21169966 7.21208560 7.21208560 7.21169966 7.21089939 7.20959904 7.20768180 7.20504956 7.20162757 7.19740324 7.19265217 7.18826647 7.18568886 7.18651830 7.19241773 7.20302851 7.21329196 7.22156776 7.22156776 7.22156776 7.22156776 7.22156776 7.22156776 7.22156776 7.22156776 7.22156776 7.22156776 7.22156776 7.22156776 7.20619185 7.19492845 7.18861099 7.18571995 7.18611247 7.18842528 7.19142485 7.19454393 7.19742573 7.19974723 7.20133754 7.20226963 7.20269947 7.20269947 7.20226963 7.20133754 7.19974723 7.19742573 7.19454393 7.19142485 7.18842528 7.18611247 7.18571995 7.18861099 7.19492845 7.20619185 7.22156776 7.22156776 7.22156776 7.22156776 7.22156776 7.22156776 7.22156776 7.22156776 7.22156776 7.22156776 7.22156776 7.22156776 7.22156776 7.22156776 7.22156776 7.20885695 7.20093839 7.19266448 7.18821643 7.18624917 7.18582676 7.18678998 7.18855610 7.19024100 7.19120616 7.19153124 7.19159768 7.19159768 7.19153124 7.19120616 7.19024100 7.18855610 7.18678998 7.18582676 7.18624917 7.18821643 7.19266448 7.20093839 7.20885695 7.22156776 7.22156776 7.22156776 7.22156776 7.22156776 7.22156776 7.22156776 7.22156776 7.22156776 7.22156776 7.22156776 7.22156776 7.22156776 7.22156776 7.22156776 7.22156776 7.22156776 7.22156776 7.20784469 7.20112244 7.19516395 7.19055716 7.18847237 7.18818694 7.18821634 7.18728206 7.18589729 7.18501744 7.18501744 7.18589729 7.18728206 7.18821634 7.18818694 7.18847237 7.19055716 7.19516395 7.20112244 7.20784469 7.22156776 7.22156776 7.22156776 7.22156776 7.22156776 7.22156776 7.22156776 7.22156776 7.22156776 7.22156776 7.22156776 7.22156776 7.22156776 7.22156776 7.22156776 7.22156776 7.22156776 7.22156776 7.22156776 7.22156776 7.22156776 7.22156776 7.21215048 7.20522651 7.20185931 7.20047951 7.19920185 7.19535439 7.19150909 7.18944872 7.18944872 7.19150909 7.19535439 7.19920185 7.20047951 7.20185931 7.20522651 7.21215048 7.22156776 7.22156776 7.22156776 7.22156776 7.22156776 7.22156776 7.22156776 7.22156776 7.22156776 7.22156776 7.22156776 7.22156776 7.22156776 7.22156776 7.22156776 7.22156776 7.22156776 7.22156776 7.22156776 7.22156776 7.22156776 7.22156776 7.22156776 7.22156776 7.22156776 7.22156776 7.22156776 7.22156776 7.22156776 7.21250834 7.20675047 7.20434465 7.20434465 7.20675047 7.21250834 7.22156776 7.22156776 7.22156776 7.22156776 7.22156776 7.22156776 7.22156776 7.22156776 7.22156776 7.22156776 7.22156776 7.22156776 7.22156776 7.22156776 7.22156776 7.22156776 7.22156776 7.22156776 7.22156776 7.22156776 7.22156776 7.22156776 7.22156776 7.22156776 7.22156776 7.22156776 7.22156776 7.22156776 7.22156776 7.22156776 7.22156776 7.22156776 7.22156776 7.22156776 7.22156776 7.22156776 7.22156776 7.22156776 7.22156776 7.22156776 7.22156776 7.22156776 7.22156776 7.22156776 7.22156776 7.22156776 7.22156776 7.22156776 7.22156776 7.22156776 7.22156776 7.22156776 7.22156776 7.22156776 7.22156776 7.22156776 7.22156776 7.22156776 7.22156776 7.22156776 7.22156776 7.22156776 7.22156776 7.22156776 7.22156776 7.22156776 7.22156776 7.22156776 7.22156776 7.22156776 7.22156776 7.22156776 7.22156776 7.22156776 7.22156776 7.22156776 7.22156776 7.22156776 7.22156776 7.22156776 7.22156776 7.22156776 7.22156776 7.22156776 7.22156776 7.22156776 7.22156776 7.22156776 7.22156776 7.22156776 7.22156776 7.22156776 7.22156776 7.22156776 7.22156776 7.22156776 7.22156776 7.22156776 7.22156776 7.22156776 7.22156776 7.22156776 7.22156776 7.22156776 7.22156776 7.22156776 7.22156776 7.22156776 7.22156776 7.22156776 7.22156776 7.22156776 7.22156776 7.22156776 7.22156776 7.22156776 7.22156776 7.22156776 7.22156776 7.22156776 7.22156776 7.22156776 7.22156776 7.22156776 7.22156776 7.22156776 7.22156776 7.22156776 7.22156776 7.22156776 7.22156776 7.22156776 7.22156776 7.22156776 7.22156776 7.22156776 7.22156776 7.22156776 7.22156776 7.22156776 7.22156776 7.22156776 7.22156776 7.22156776 7.22156776 7.22156776 7.22156776 7.22156776 7.22156776 7.22156776 7.22156776 7.22156776 7.22156776 7.22156776 7.22156776 7.22156776 7.22156776 7.22156776 7.22156776 7.22156776 7.22156776 7.22156776 7.22156776 7.22156776 7.22156776 7.22156776 7.22156776 7.22156776 7.22156776 7.22156776 7.22156776 7.22156776 7.22156776 7.22156776 7.22156776 7.22156776 7.22156776 7.22156776 7.22156776 7.22156776 7.22156776 7.22156776 7.22156776 7.22156776 7.22156776 7.22156776 7.22156776 7.22156776 7.22156776 7.22156776 7.22156776 7.22156776 7.22156776 7.22156776 7.22156776 7.22156776 7.22156776 7.22156776 7.22156776 7.22156776 7.22156776 7.22156776 7.22156776 7.22156776 7.22156776 7.22156776 7.22156776 7.22156776 7.22156776 7.22156776 7.22156776 7.22156776 7.22156776 7.22156776 7.22156776 7.22156776 7.22156776 7.22156776 7.22156776 7.22156776 7.22156776 7.22156776 7.22156776 7.22156776 7.22156776 7.22156776 7.22156776 7.22156776 7.22156776 7.22156776 7.22156776 7.22156776 7.22156776 7.22156776 7.22156776 7.22156776 7.22156776 7.22156776 7.22156776 7.22156776 7.22156776 7.22156776 7.22156776 7.22156776 7.22156776 7.22156776 7.22156776 7.22156776 7.22156776 7.22156776 7.22156776 7.22156776 7.22156776 7.22156776 7.22156776 7.22156776 7.22156776 7.22156776 7.22156776 7.22156776 7.22156776 7.22156776 7.22156776 7.22156776 7.22156776 7.22156776 7.22156776 7.22156776 7.22156776 7.22156776 7.22156776 7.22156776 7.22156776 7.22156776 7.22156776 7.22156776 7.22156776 7.22156776 7.22156776 7.22156776 7.22156776 7.22156776 7.22156776 7.22156776 7.22156776 7.22156776 7.22156776 7.22156776 7.22156776 7.22156776 7.22156776 7.22156776 7.22156776 7.22156776 7.22156776 7.22156776 7.22156776 7.22156776 7.22156776 7.22156776 7.22156776 7.22156776 7.22156776 7.22156776 7.22156776 7.22156776 7.22156776 7.22156776 7.22156776 7.22156776 7.22156776 7.22156776 7.22156776 7.22156776 7.22156776 7.22156776 7.22156776 7.22156776 7.22156776 7.22156776 7.22156776 7.22156776 7.22156776 7.22156776 7.22156776 7.22156776 7.22156776 7.22156776 7.22156776 7.22156776 7.22156776 7.22156776 7.22156776 7.22156776 7.22156776 7.22156776 7.22156776 