# vtk DataFile Version 3.0
VTK - Matlab export
ASCII
DATASET STRUCTURED_POINTS
DIMENSIONS 40 40 1
SPACING 1 1 1
ORIGIN 0 0 0
POINT_DATA 1600
SCALARS Temperature float 1
LOOKUP_TABLE default
300.00000000 300.00000000 300.00000000 300.00000000 300.00000000 300.00000000 300.00000000 300.00000000 300.00000000 300.00000000 300.00000000 300.00000000 300.00000000 300.00000000 300.00000000 300.00000000 300.00000000 300.00000000 300.00000000 300.00000000 300.00000000 300.00000000 300.00000000 300.00000000 300.00000000 300.00000000 300.00000000 300.00000000 300.00000000 300.00000000 300.00000000 300.00000000 300.00000000 300.00000000 300.00000000 300.00000000 300.00000000 300.00000000 300.00000000 300.00000000 300.00000000 300.00000000 300.00000000 300.00000000 300.00000000 300.00000000 300.00000000 300.00000000 300.00000000 300.00000000 300.00000000 300.00000000 300.00000000 300.00000000 300.00000000 300.00000000 300.00000000 300.00000000 300.00000000 300.00000000 300.00000000 300.00000000 300.00000000 300.00000000 300.00000000 300.00000000 300.00000000 300.00000000 300.00000000 300.00000000 300.00000000 300.00000000 300.00000000 300.00000000 300.00000000 300.00000000 300.00000000 300.00000000 300.00000000 300.00000000 300.00000000 300.00000000 300.00000000 300.00000000 300.00000000 300.00000000 300.00000000 300.00000000 300.00000000 300.00000000 300.00000000 300.00000000 300.00000000 300.00000000 300.00000000 300.00000000 300.00000000 300.00000000 300.00000000 300.00000000 300.00000000 300.00000000 300.00000000 300.00000000 300.00000000 300.00000000 300.00000000 300.00000000 300.00000000 300.00000000 300.00000000 300.00000000 300.00000000 300.00000000 300.00000000 300.00000000 300.00000000 300.00000000 300.00000000 300.00000000 300.00000000 300.00000000 300.00000000 300.00000000 300.00000000 300.00000000 300.00000000 300.00000000 300.00000000 300.00000000 300.00000000 300.00000000 300.00000000 300.00000000 300.00000000 300.00000000 300.00000000 300.00000000 300.00000000 300.00000000 300.00000000 300.00000000 300.00000000 300.00000000 300.00000000 300.00000000 300.00000000 300.00000000 300.00000000 300.00000000 300.00000000 300.00000000 300.00000000 300.00000000 300.00000000 300.00000000 300.00000000 300.00000000 300.00000000 300.00000000 300.00000000 300.00000000 300.00000000 300.00000000 300.00000000 300.00000000 300.00000000 300.00000000 300.00000000 300.00000000 300.00000000 300.00000000 300.00000000 300.00000000 300.00000000 300.00000000 300.00000000 300.00000000 300.00000000 300.00000000 300.00000000 300.00000000 300.00000000 300.00000000 300.00000000 300.00000000 300.00000000 300.00000000 300.00000000 300.00000000 300.00000000 300.00000000 300.00000000 300.00000000 300.00000000 300.00000000 300.00000000 300.00000000 300.00000000 300.00000000 300.00000000 300.00000000 300.00000000 300.00000000 300.00000000 300.00000000 300.00000000 300.00000000 300.00000000 300.00000000 300.00000000 300.00000000 300.00000000 300.00000000 300.00000000 300.00000000 300.00000000 300.00000000 300.00000000 300.00000000 300.00000000 300.00000000 300.00000000 300.00000000 300.00000000 300.00000000 300.00000000 300.00000000 300.00000000 300.00000000 300.00000000 300.00000000 300.00000000 300.00000000 300.00000000 300.00000000 300.00000000 300.00000000 300.00000000 300.00000000 300.00000000 300.00000000 300.00000000 300.00000000 300.00000000 300.00000000 300.00000000 300.00000000 300.00000000 300.00000000 300.00000000 300.00000000 300.00000000 300.00000000 300.00000000 300.00000000 300.00000000 300.00000000 300.00000000 300.00000000 300.00000000 300.00000000 300.00000000 300.00000000 300.00000000 300.00000000 300.00000000 300.00000000 300.00000000 300.00000000 300.00000000 300.00000000 300.00000000 300.00000000 300.00000000 300.00000000 300.00000000 300.00000000 300.00000000 300.00000000 300.00000000 300.00000000 300.00000000 300.00000000 300.00000000 300.00000000 300.00000000 300.00000000 300.00000000 300.00000000 300.00000000 300.00000000 300.00000000 300.00000000 300.00000000 300.00000000 300.00000000 300.00000000 300.00000000 300.00000000 300.00000000 300.00000000 300.00000000 300.00000000 300.00000000 300.00000000 300.00000000 300.00000000 300.00000000 300.00000000 300.00000000 300.00000000 300.00000000 300.00000000 300.00000000 300.00000000 300.00000000 300.00000000 300.00000000 300.00000000 300.00000000 300.00000000 300.00000000 300.00000000 300.00000000 300.00000000 300.00000000 300.00000000 300.00000000 300.00000000 300.00000000 300.00000000 300.00000000 300.00000000 300.00000000 300.00000000 300.00000000 317.76812778 327.31606457 330.81079261 330.81079261 327.31606457 317.76812778 300.00000000 300.00000000 300.00000000 300.00000000 300.00000000 300.00000000 300.00000000 300.00000000 300.00000000 300.00000000 300.00000000 300.00000000 300.00000000 300.00000000 300.00000000 300.00000000 300.00000000 300.00000000 300.00000000 300.00000000 300.00000000 300.00000000 300.00000000 300.00000000 300.00000000 300.00000000 300.00000000 300.00000000 300.00000000 317.83404218 331.52356702 340.18721521 346.27239479 351.86080966 360.57100109 367.56116091 370.93402559 370.93402559 367.56116091 360.57100109 351.86080966 346.27239479 340.18721521 331.52356702 317.83404218 300.00000000 300.00000000 300.00000000 300.00000000 300.00000000 300.00000000 300.00000000 300.00000000 300.00000000 300.00000000 300.00000000 300.00000000 300.00000000 300.00000000 300.00000000 300.00000000 300.00000000 300.00000000 300.00000000 300.00000000 300.00000000 300.00000000 325.56645157 340.71658994 356.59220992 371.57288874 383.56115766 392.95022754 400.75897544 407.94493975 413.46844148 416.33917166 416.33917166 413.46844148 407.94493975 400.75897544 392.95022754 383.56115766 371.57288874 356.59220992 340.71658994 325.56645157 300.00000000 300.00000000 300.00000000 300.00000000 300.00000000 300.00000000 300.00000000 300.00000000 300.00000000 300.00000000 300.00000000 300.00000000 300.00000000 300.00000000 300.00000000 300.00000000 300.00000000 300.00000000 322.79900543 340.34132434 362.04124644 381.20111867 398.82960535 414.80148119 428.30150191 439.28330279 448.12632593 455.15542276 460.14221586 462.71487631 462.71487631 460.14221586 455.15542276 448.12632593 439.28330279 428.30150191 414.80148119 398.82960535 381.20111867 362.04124644 340.34132434 322.79900543 300.00000000 300.00000000 300.00000000 300.00000000 300.00000000 300.00000000 300.00000000 300.00000000 300.00000000 300.00000000 300.00000000 300.00000000 300.00000000 300.00000000 300.00000000 328.14741852 353.69292574 377.27685728 400.49943079 421.80255733 440.93026425 457.73905670 471.95850319 483.57275179 492.76927745 499.72748089 504.44865229 506.83843465 506.83843465 504.44865229 499.72748089 492.76927745 483.57275179 471.95850319 457.73905670 440.93026425 421.80255733 400.49943079 377.27685728 353.69292574 328.14741852 300.00000000 300.00000000 300.00000000 300.00000000 300.00000000 300.00000000 300.00000000 300.00000000 300.00000000 300.00000000 300.00000000 300.00000000 312.94169110 332.56687751 359.44068013 386.91666235 413.35317185 438.26994492 460.89431045 480.86444098 498.04822562 512.40255664 524.01921324 533.08650666 539.78886323 544.23119635 546.44827871 546.44827871 544.23119635 539.78886323 533.08650666 524.01921324 512.40255664 498.04822562 480.86444098 460.89431045 438.26994492 413.35317185 386.91666235 359.44068013 332.56687751 312.94169110 300.00000000 300.00000000 300.00000000 300.00000000 300.00000000 300.00000000 300.00000000 300.00000000 300.00000000 300.00000000 331.09722256 359.71215716 389.49426747 419.12428640 447.39046191 473.47496277 496.76493644 516.96144692 534.01411263 548.02527255 559.20112159 567.79576605 574.04610958 578.12694031 580.14334120 580.14334120 578.12694031 574.04610958 567.79576605 559.20112159 548.02527255 534.01411263 516.96144692 496.76493644 473.47496277 447.39046191 419.12428640 389.49426747 359.71215716 331.09722256 300.00000000 300.00000000 300.00000000 300.00000000 300.00000000 300.00000000 300.00000000 300.00000000 300.00000000 323.87506078 353.51401772 384.94597001 417.02347286 448.39107550 477.86170237 504.57549541 528.00460695 547.95067138 564.47613590 577.81022321 588.26862355 596.18557374 601.85922090 605.51824810 607.31160174 607.31160174 605.51824810 601.85922090 596.18557374 588.26862355 577.81022321 564.47613590 547.95067138 528.00460695 504.57549541 477.86170237 448.39107550 417.02347286 384.94597001 353.51401772 323.87506078 300.00000000 300.00000000 300.00000000 300.00000000 300.00000000 300.00000000 300.00000000 316.52081896 342.31242565 373.41833555 406.85422565 440.67082479 473.29441100 503.49061950 530.41623839 553.62586121 573.03067619 588.81104785 601.31127701 610.94462540 618.11924429 623.18756922 626.41895067 627.99099297 627.99099297 626.41895067 623.18756922 618.11924429 610.94462540 601.31127701 588.81104785 573.03067619 553.62586121 530.41623839 503.49061950 473.29441100 440.67082479 406.85422565 373.41833555 342.31242565 316.52081896 300.00000000 300.00000000 300.00000000 300.00000000 300.00000000 300.00000000 325.72050320 355.58014708 388.99699293 424.18096104 459.30642806 492.77630307 523.35351657 550.23523080 573.05672870 591.83055220 606.84190153 618.53124192 627.39066048 633.88703917 638.41416798 641.26970949 642.64937080 642.64937080 641.26970949 638.41416798 633.88703917 627.39066048 618.53124192 606.84190153 591.83055220 573.05672870 550.23523080 523.35351657 492.77630307 459.30642806 424.18096104 388.99699293 355.58014708 325.72050320 300.00000000 300.00000000 300.00000000 300.00000000 300.00000000 300.00000000 331.56381602 364.42507487 399.67436139 436.13251087 472.13537455 506.11683776 536.85969296 563.60313436 586.04795825 604.28455303 618.67607971 629.73202667 637.99942156 643.98503097 648.10966115 650.68835406 651.92716828 651.92716828 650.68835406 648.10966115 643.98503097 637.99942156 629.73202667 618.67607971 604.28455303 586.04795825 563.60313436 536.85969296 506.11683776 472.13537455 436.13251087 399.67436139 364.42507487 331.56381602 300.00000000 300.00000000 300.00000000 300.00000000 300.00000000 309.27430317 336.27116459 369.22749398 405.16891035 442.23694846 478.66834611 512.88605347 543.68245838 570.32138573 592.54013606 610.47130388 624.51950252 635.23019598 643.17850065 648.89116753 652.80216769 655.23467203 656.39935305 656.39935305 655.23467203 652.80216769 648.89116753 643.17850065 635.23019598 624.51950252 610.47130388 592.54013606 570.32138573 543.68245838 512.88605347 478.66834611 442.23694846 405.16891035 369.22749398 336.27116459 309.27430317 300.00000000 300.00000000 300.00000000 300.00000000 309.27430317 336.27116459 369.22749398 405.16891035 442.23694846 478.66834611 512.88605347 543.68245838 570.32138573 592.54013606 610.47130388 624.51950252 635.23019598 643.17850065 648.89116753 652.80216769 655.23467203 656.39935305 656.39935305 655.23467203 652.80216769 648.89116753 643.17850065 635.23019598 624.51950252 610.47130388 592.54013606 570.32138573 543.68245838 512.88605347 478.66834611 442.23694846 405.16891035 369.22749398 336.27116459 309.27430317 300.00000000 300.00000000 300.00000000 300.00000000 300.00000000 331.56381602 364.42507487 399.67436139 436.13251087 472.13537455 506.11683776 536.85969296 563.60313436 586.04795825 604.28455303 618.67607971 629.73202667 637.99942156 643.98503097 648.10966115 650.68835406 651.92716828 651.92716828 650.68835406 648.10966115 643.98503097 637.99942156 629.73202667 618.67607971 604.28455303 586.04795825 563.60313436 536.85969296 506.11683776 472.13537455 436.13251087 399.67436139 364.42507487 331.56381602 300.00000000 300.00000000 300.00000000 300.00000000 300.00000000 300.00000000 325.72050320 355.58014708 388.99699293 424.18096104 459.30642806 492.77630307 523.35351657 550.23523080 573.05672870 591.83055220 606.84190153 618.53124192 627.39066048 633.88703917 638.41416798 641.26970949 642.64937080 642.64937080 641.26970949 638.41416798 633.88703917 627.39066048 618.53124192 606.84190153 591.83055220 573.05672870 550.23523080 523.35351657 492.77630307 459.30642806 424.18096104 388.99699293 355.58014708 325.72050320 300.00000000 300.00000000 300.00000000 300.00000000 300.00000000 300.00000000 316.52081896 342.31242565 373.41833555 406.85422565 440.67082479 473.29441100 503.49061950 530.41623839 553.62586121 573.03067619 588.81104785 601.31127701 610.94462540 618.11924429 623.18756922 626.41895067 627.99099297 627.99099297 626.41895067 623.18756922 618.11924429 610.94462540 601.31127701 588.81104785 573.03067619 553.62586121 530.41623839 503.49061950 473.29441100 440.67082479 406.85422565 373.41833555 342.31242565 316.52081896 300.00000000 300.00000000 300.00000000 300.00000000 300.00000000 300.00000000 300.00000000 323.87506078 353.51401772 384.94597001 417.02347286 448.39107550 477.86170237 504.57549541 528.00460695 547.95067138 564.47613590 577.81022321 588.26862355 596.18557374 601.85922090 605.51824810 607.31160174 607.31160174 605.51824810 601.85922090 596.18557374 588.26862355 577.81022321 564.47613590 547.95067138 528.00460695 504.57549541 477.86170237 448.39107550 417.02347286 384.94597001 353.51401772 323.87506078 300.00000000 300.00000000 300.00000000 300.00000000 300.00000000 300.00000000 300.00000000 300.00000000 300.00000000 331.09722256 359.71215716 389.49426747 419.12428640 447.39046191 473.47496277 496.76493644 516.96144692 534.01411263 548.02527255 559.20112159 567.79576605 574.04610958 578.12694031 580.14334120 580.14334120 578.12694031 574.04610958 567.79576605 559.20112159 548.02527255 534.01411263 516.96144692 496.76493644 473.47496277 447.39046191 419.12428640 389.49426747 359.71215716 331.09722256 300.00000000 300.00000000 300.00000000 300.00000000 300.00000000 300.00000000 300.00000000 300.00000000 300.00000000 300.00000000 312.94169110 332.56687751 359.44068013 386.91666235 413.35317185 438.26994492 460.89431045 480.86444098 498.04822562 512.40255664 524.01921324 533.08650666 539.78886323 544.23119635 546.44827871 546.44827871 544.23119635 539.78886323 533.08650666 524.01921324 512.40255664 498.04822562 480.86444098 460.89431045 438.26994492 413.35317185 386.91666235 359.44068013 332.56687751 312.94169110 300.00000000 300.00000000 300.00000000 300.00000000 300.00000000 300.00000000 300.00000000 300.00000000 300.00000000 300.00000000 300.00000000 300.00000000 328.14741852 353.69292574 377.27685728 400.49943079 421.80255733 440.93026425 457.73905670 471.95850319 483.57275179 492.76927745 499.72748089 504.44865229 506.83843465 506.83843465 504.44865229 499.72748089 492.76927745 483.57275179 471.95850319 457.73905670 440.93026425 421.80255733 400.49943079 377.27685728 353.69292574 328.14741852 300.00000000 300.00000000 300.00000000 300.00000000 300.00000000 300.00000000 300.00000000 300.00000000 300.00000000 300.00000000 300.00000000 300.00000000 300.00000000 300.00000000 300.00000000 322.79900543 340.34132434 362.04124644 381.20111867 398.82960535 414.80148119 428.30150191 439.28330279 448.12632593 455.15542276 460.14221586 462.71487631 462.71487631 460.14221586 455.15542276 448.12632593 439.28330279 428.30150191 414.80148119 398.82960535 381.20111867 362.04124644 340.34132434 322.79900543 300.00000000 300.00000000 300.00000000 300.00000000 300.00000000 300.00000000 300.00000000 300.00000000 300.00000000 300.00000000 300.00000000 300.00000000 300.00000000 300.00000000 300.00000000 300.00000000 300.00000000 300.00000000 325.56645157 340.71658994 356.59220992 371.57288874 383.56115766 392.95022754 400.75897544 407.94493975 413.46844148 416.33917166 416.33917166 413.46844148 407.94493975 400.75897544 392.95022754 383.56115766 371.57288874 356.59220992 340.71658994 325.56645157 300.00000000 300.00000000 300.00000000 300.00000000 300.00000000 300.00000000 300.00000000 300.00000000 300.00000000 300.00000000 300.00000000 300.00000000 300.00000000 300.00000000 300.00000000 300.00000000 300.00000000 300.00000000 300.00000000 300.00000000 300.00000000 300.00000000 317.83404218 331.52356702 340.18721521 346.27239479 351.86080966 360.57100109 367.56116091 370.93402559 370.93402559 367.56116091 360.57100109 351.86080966 346.27239479 340.18721521 331.52356702 317.83404218 300.00000000 300.00000000 300.00000000 300.00000000 300.00000000 300.00000000 300.00000000 300.00000000 300.00000000 300.00000000 300.00000000 300.00000000 300.00000000 300.00000000 300.00000000 300.00000000 300.00000000 300.00000000 300.00000000 300.00000000 300.00000000 300.00000000 300.00000000 300.00000000 300.00000000 300.00000000 300.00000000 300.00000000 300.00000000 317.76812778 327.31606457 330.81079261 330.81079261 327.31606457 317.76812778 300.00000000 300.00000000 300.00000000 300.00000000 300.00000000 300.00000000 300.00000000 300.00000000 300.00000000 300.00000000 300.00000000 300.00000000 300.00000000 300.00000000 300.00000000 300.00000000 300.00000000 300.00000000 300.00000000 300.00000000 300.00000000 300.00000000 300.00000000 300.00000000 300.00000000 300.00000000 300.00000000 300.00000000 300.00000000 300.00000000 300.00000000 300.00000000 300.00000000 300.00000000 300.00000000 300.00000000 300.00000000 300.00000000 300.00000000 300.00000000 300.00000000 300.00000000 300.00000000 300.00000000 300.00000000 300.00000000 300.00000000 300.00000000 300.00000000 300.00000000 300.00000000 300.00000000 300.00000000 300.00000000 300.00000000 300.00000000 300.00000000 300.00000000 300.00000000 300.00000000 300.00000000 300.00000000 300.00000000 300.00000000 300.00000000 300.00000000 300.00000000 300.00000000 300.00000000 300.00000000 300.00000000 300.00000000 300.00000000 300.00000000 300.00000000 300.00000000 300.00000000 300.00000000 300.00000000 300.00000000 300.00000000 300.00000000 300.00000000 300.00000000 300.00000000 300.00000000 300.00000000 300.00000000 300.00000000 300.00000000 300.00000000 300.00000000 300.00000000 300.00000000 300.00000000 300.00000000 300.00000000 300.00000000 300.00000000 300.00000000 300.00000000 300.00000000 300.00000000 300.00000000 300.00000000 300.00000000 300.00000000 300.00000000 300.00000000 300.00000000 300.00000000 300.00000000 300.00000000 300.00000000 300.00000000 300.00000000 300.00000000 300.00000000 300.00000000 300.00000000 300.00000000 300.00000000 300.00000000 300.00000000 300.00000000 300.00000000 300.00000000 300.00000000 300.00000000 300.00000000 300.00000000 300.00000000 300.00000000 300.00000000 300.00000000 300.00000000 300.00000000 300.00000000 300.00000000 300.00000000 300.00000000 300.00000000 300.00000000 300.00000000 300.00000000 300.00000000 300.00000000 300.00000000 300.00000000 300.00000000 300.00000000 300.00000000 300.00000000 300.00000000 300.00000000 300.00000000 300.00000000 300.00000000 300.00000000 300.00000000 300.00000000 300.00000000 300.00000000 300.00000000 300.00000000 300.00000000 300.00000000 300.00000000 300.00000000 300.00000000 300.00000000 300.00000000 300.00000000 300.00000000 300.00000000 300.00000000 300.00000000 300.00000000 300.00000000 300.00000000 300.00000000 300.00000000 300.00000000 300.00000000 300.00000000 300.00000000 300.00000000 300.00000000 300.00000000 300.00000000 300.00000000 300.00000000 300.00000000 300.00000000 300.00000000 300.00000000 300.00000000 300.00000000 300.00000000 300.00000000 300.00000000 300.00000000 300.00000000 300.00000000 300.00000000 300.00000000 300.00000000 300.00000000 300.00000000 300.00000000 300.00000000 300.00000000 300.00000000 300.00000000 300.00000000 300.00000000 300.00000000 300.00000000 300.00000000 300.00000000 300.00000000 300.00000000 300.00000000 300.00000000 300.00000000 300.00000000 300.00000000 300.00000000 300.00000000 300.00000000 300.00000000 300.00000000 300.00000000 300.00000000 300.00000000 300.00000000 300.00000000 300.00000000 300.00000000 300.00000000 300.00000000 300.00000000 300.00000000 300.00000000 300.00000000 300.00000000 300.00000000 300.00000000 300.00000000 300.00000000 300.00000000 300.00000000 300.00000000 300.00000000 300.00000000 300.00000000 300.00000000 300.00000000 300.00000000 300.00000000 300.00000000 300.00000000 300.00000000 300.00000000 300.00000000 300.00000000 300.00000000 300.00000000 300.00000000 300.00000000 300.00000000 300.00000000 300.00000000 300.00000000 300.00000000 300.00000000 300.00000000 300.00000000 300.00000000 300.00000000 300.00000000 300.00000000 300.00000000 300.00000000 300.00000000 300.00000000 300.00000000 300.00000000 300.00000000 300.00000000 300.00000000 300.00000000 300.00000000 300.00000000 300.00000000 300.00000000 300.00000000 300.00000000 300.00000000 300.00000000 300.00000000 300.00000000 300.00000000 300.00000000 300.00000000 300.00000000 300.00000000 300.00000000 300.00000000 300.00000000 300.00000000 300.00000000 300.00000000 300.00000000 300.00000000 300.00000000 300.00000000 300.00000000 300.00000000 300.00000000 300.00000000 300.00000000 300.00000000 300.00000000 300.00000000 300.00000000 300.00000000 300.00000000 300.00000000 300.00000000 300.00000000 300.00000000 300.00000000 300.00000000 300.00000000 300.00000000 300.00000000 