# vtk DataFile Version 3.0
VTK - Matlab export
ASCII
DATASET STRUCTURED_POINTS
DIMENSIONS 40 40 1
SPACING 1 1 1
ORIGIN 0 0 0
POINT_DATA 1600
SCALARS Proofstrength float 1
LOOKUP_TABLE default
142.25514280 142.25514280 142.25514280 142.25514280 142.25514280 142.25514280 142.25514280 142.25514280 142.25514280 142.25514280 142.25514280 142.25514280 142.25514280 142.25514280 142.25514280 142.25514280 142.25514280 142.25514280 142.25514280 142.25514280 142.25514280 142.25514280 142.25514280 142.25514280 142.25514280 142.25514280 142.25514280 142.25514280 142.25514280 142.25514280 142.25514280 142.25514280 142.25514280 142.25514280 142.25514280 142.25514280 142.25514280 142.25514280 142.25514280 142.25514280 142.25514280 142.25514280 142.25514280 142.25514280 142.25514280 142.25514280 142.25514280 142.25514280 142.25514280 142.25514280 142.25514280 142.25514280 142.25514280 142.25514280 142.25514280 142.25514280 142.25514280 142.25514280 142.25514280 142.25514280 142.25514280 142.25514280 142.25514280 142.25514280 142.25514280 142.25514280 142.25514280 142.25514280 142.25514280 142.25514280 142.25514280 142.25514280 142.25514280 142.25514280 142.25514280 142.25514280 142.25514280 142.25514280 142.25514280 142.25514280 142.25514280 142.25514280 142.25514280 142.25514280 142.25514280 142.25514280 142.25514280 142.25514280 142.25514280 142.25514280 142.25514280 142.25514280 142.25514280 142.25514280 142.25514280 142.25514280 142.25514280 142.25514280 142.25514280 142.25514280 142.25514280 142.25514280 142.25514280 142.25514280 142.25514280 142.25514280 142.25514280 142.25514280 142.25514280 142.25514280 142.25514280 142.25514280 142.25514280 142.25514280 142.25514280 142.25514280 142.25514280 142.25514280 142.25514280 142.25514280 142.25514280 142.25514280 142.25514280 142.25514280 142.25514280 142.25514280 142.25514280 142.25514280 142.25514280 142.25514280 142.25514280 142.25514280 142.25514280 142.25514280 142.25514280 142.25514280 142.25514280 142.25514280 142.25514280 142.25514280 142.25514280 142.25514280 142.25514280 142.25514280 142.25514280 142.25514280 142.25514280 142.25514280 142.25514280 142.25514280 142.25514280 142.25514280 142.25514280 142.25514280 142.25514280 142.25514280 142.25514280 142.25514280 142.25514280 142.25514280 142.25514280 142.25514280 142.25514280 142.25514280 142.25514280 142.25514280 142.25514280 142.25514280 142.25514280 142.25514280 142.25514280 142.25514280 142.25514280 142.25514280 142.25514280 142.25514280 142.25514280 142.25514280 142.25514280 142.25514280 142.25514280 142.25514280 142.25514280 142.25514280 142.25514280 142.25514280 142.25514280 142.25514280 142.25514280 142.25514280 142.25514280 142.25514280 142.25514280 142.25514280 142.25514280 142.25514280 142.25514280 142.25514280 142.25514280 142.25514280 142.25514280 142.25514280 142.25514280 142.25514280 142.25514280 142.25514280 142.25514280 142.25514280 142.25514280 142.25514280 142.25514280 142.25514280 142.25514280 142.25514280 142.25514280 142.25514280 142.25514280 142.25514280 142.25514280 142.25514280 142.25514280 142.25514280 142.25514280 142.25514280 142.25514280 142.25514280 142.25514280 142.25514280 142.25514280 142.25514280 142.25514280 142.25514280 142.25514280 142.25514280 142.25514280 142.25514280 142.25514280 142.25514280 142.25514280 142.25514280 142.25514280 142.25514280 142.25514280 142.25514280 142.25514280 142.25514280 142.25514280 142.25514280 142.25514280 142.25514280 142.25514280 142.25514280 142.25514280 142.25514280 142.25514280 142.25514280 142.25514280 142.25514280 142.25514280 142.25514280 142.25514280 142.25514280 142.25514280 142.25514280 142.25514280 142.25514280 142.25514280 142.25514280 142.25514280 142.25514280 142.25514280 142.25514280 142.25514280 142.25514280 142.25514280 142.25514280 142.25514280 142.25514280 142.25514280 142.25514280 142.25514280 142.25514280 142.25514280 142.25514280 142.25514280 142.25514280 142.25514280 142.25514280 142.25514280 142.25514280 142.25514280 142.25514280 142.25514280 142.25514280 142.25514280 142.25514280 142.25514280 142.25514280 142.25514280 142.25514280 142.25514280 142.25514280 142.25514280 142.25514280 142.25514280 142.25514280 142.25514280 142.25514280 142.25514280 142.25514280 142.25514280 142.25514280 142.25514280 142.25514280 142.25514280 142.25514280 142.25514280 142.25514280 142.25514280 142.25514280 142.25514280 142.25514280 142.25514280 142.25514280 142.25514280 142.25514280 142.25514280 142.25514280 142.25514280 142.25514280 142.25514280 142.25514280 142.25514280 142.25514280 142.25514280 142.25514280 142.25514280 142.26581323 142.27237741 142.27505518 142.27505518 142.27237741 142.26581323 142.25514280 142.25514280 142.25514280 142.25514280 142.25514280 142.25514280 142.25514280 142.25514280 142.25514280 142.25514280 142.25514280 142.25514280 142.25514280 142.25514280 142.25514280 142.25514280 142.25514280 142.25514280 142.25514280 142.25514280 142.25514280 142.25514280 142.25514280 142.25514280 142.25514280 142.25514280 142.25514280 142.25514280 142.25514280 142.26629409 142.27451474 142.27870768 142.28068835 142.28250386 142.28713939 142.29158495 142.29393187 142.29393187 142.29158495 142.28713939 142.28250386 142.28068835 142.27870768 142.27451474 142.26629409 142.25514280 142.25514280 142.25514280 142.25514280 142.25514280 142.25514280 142.25514280 142.25514280 142.25514280 142.25514280 142.25514280 142.25514280 142.25514280 142.25514280 142.25514280 142.25514280 142.25514280 142.25514280 142.25514280 142.25514280 142.25514280 142.25514280 142.27146068 142.27973920 142.28728786 142.29331059 142.29646227 142.29753405 142.29811640 142.29960596 142.30143390 142.30256262 142.30256262 142.30143390 142.29960596 142.29811640 142.29753405 142.29646227 142.29331059 142.28728786 142.27973920 142.27146068 142.25514280 142.25514280 142.25514280 142.25514280 142.25514280 142.25514280 142.25514280 142.25514280 142.25514280 142.25514280 142.25514280 142.25514280 142.25514280 142.25514280 142.25514280 142.25514280 142.25514280 142.25514280 142.27025085 142.28002861 142.29056734 142.29694108 142.30049135 142.30208459 142.30185711 142.30049243 142.29902033 142.29821749 142.29805094 142.29809590 142.29809590 142.29805094 142.29821749 142.29902033 142.30049243 142.30185711 142.30208459 142.30049135 142.29694108 142.29056734 142.28002861 142.27025085 142.25514280 142.25514280 142.25514280 142.25514280 142.25514280 142.25514280 142.25514280 142.25514280 142.25514280 142.25514280 142.25514280 142.25514280 142.25514280 142.25514280 142.25514280 142.27363440 142.28766421 142.29643294 142.30147354 142.30264323 142.30123689 142.29855244 142.29531021 142.29206271 142.28931994 142.28739615 142.28627613 142.28577699 142.28577699 142.28627613 142.28739615 142.28931994 142.29206271 142.29531021 142.29855244 142.30123689 142.30264323 142.30147354 142.29643294 142.28766421 142.27363440 142.25514280 142.25514280 142.25514280 142.25514280 142.25514280 142.25514280 142.25514280 142.25514280 142.25514280 142.25514280 142.25514280 142.25514280 142.26495430 142.27751991 142.29115640 142.29986030 142.30285078 142.30157033 142.29757011 142.29246657 142.28743086 142.28300824 142.27938902 142.27663200 142.27471398 142.27353340 142.27297454 142.27297454 142.27353340 142.27471398 142.27663200 142.27938902 142.28300824 142.28743086 142.29246657 142.29757011 142.30157033 142.30285078 142.29986030 142.29115640 142.27751991 142.26495430 142.25514280 142.25514280 142.25514280 142.25514280 142.25514280 142.25514280 142.25514280 142.25514280 142.25514280 142.25514280 142.27794986 142.29316230 142.30174194 142.30346055 142.29995592 142.29369937 142.28673918 142.28038479 142.27521810 142.27129346 142.26843063 142.26641448 142.26506211 142.26423314 142.26383794 142.26383794 142.26423314 142.26506211 142.26641448 142.26843063 142.27129346 142.27521810 142.28038479 142.28673918 142.29369937 142.29995592 142.30346055 142.30174194 142.29316230 142.27794986 142.25514280 142.25514280 142.25514280 142.25514280 142.25514280 142.25514280 142.25514280 142.25514280 142.25514280 142.27455689 142.29276773 142.30308889 142.30467862 142.29969197 142.29148216 142.28289085 142.27551385 142.26987792 142.26588270 142.26317307 142.26137477 142.26019588 142.25943932 142.25898483 142.25876957 142.25876957 142.25898483 142.25943932 142.26019588 142.26137477 142.26317307 142.26588270 142.26987792 142.27551385 142.28289085 142.29148216 142.29969197 142.30467862 142.30308889 142.29276773 142.27455689 142.25514280 142.25514280 142.25514280 142.25514280 142.25514280 142.25514280 142.25514280 142.27040872 142.28944065 142.30318783 142.30695565 142.30186436 142.29210890 142.28175914 142.27314462 142.26691797 142.26280077 142.26022330 142.25865341 142.25770237 142.25712210 142.25676744 142.25656011 142.25646312 142.25646312 142.25656011 142.25676744 142.25712210 142.25770237 142.25865341 142.26022330 142.26280077 142.26691797 142.27314462 142.28175914 142.29210890 142.30186436 142.30695565 142.30318783 142.28944065 142.27040872 142.25514280 142.25514280 142.25514280 142.25514280 142.25514280 142.25514280 142.27867869 142.29856751 142.30837555 142.30638384 142.29644574 142.28422639 142.27368374 142.26620907 142.26153509 142.25883708 142.25734782 142.25653775 142.25609243 142.25584090 142.25569525 142.25561280 142.25557482 142.25557482 142.25561280 142.25569525 142.25584090 142.25609243 142.25653775 142.25734782 142.25883708 142.26153509 142.26620907 142.27368374 142.28422639 142.29644574 142.30638384 142.30837555 142.29856751 142.27867869 142.25514280 142.25514280 142.25514280 142.25514280 142.25514280 142.25514280 142.28344409 142.30336118 142.31002325 142.30403567 142.29131866 142.27826834 142.26836158 142.26213319 142.25869028 142.25694179 142.25609364 142.25568587 142.25548495 142.25538102 142.25532443 142.25529353 142.25527953 142.25527953 142.25529353 142.25532443 142.25538102 142.25548495 142.25568587 142.25609364 142.25694179 142.25869028 142.26213319 142.26836158 142.27826834 142.29131866 142.30403567 142.31002325 142.30336118 142.28344409 142.25514280 142.25514280 142.25514280 142.25514280 142.25514280 142.26413102 142.28754771 142.30570319 142.31028869 142.30225095 142.28834914 142.27517282 142.26581439 142.26032682 142.25752333 142.25622273 142.25565257 142.25540618 142.25529660 142.25524462 142.25521800 142.25520393 142.25519764 142.25519764 142.25520393 142.25521800 142.25524462 142.25529660 142.25540618 142.25565257 142.25622273 142.25752333 142.26032682 142.26581439 142.27517282 142.28834914 142.30225095 142.31028869 142.30570319 142.28754771 142.26413102 142.25514280 142.25514280 142.25514280 142.25514280 142.26413102 142.28754771 142.30570319 142.31028869 142.30225095 142.28834914 142.27517282 142.26581439 142.26032682 142.25752333 142.25622273 142.25565257 142.25540618 142.25529660 142.25524462 142.25521800 142.25520393 142.25519764 142.25519764 142.25520393 142.25521800 142.25524462 142.25529660 142.25540618 142.25565257 142.25622273 142.25752333 142.26032682 142.26581439 142.27517282 142.28834914 142.30225095 142.31028869 142.30570319 142.28754771 142.26413102 142.25514280 142.25514280 142.25514280 142.25514280 142.25514280 142.28344409 142.30336118 142.31002325 142.30403567 142.29131866 142.27826834 142.26836158 142.26213319 142.25869028 142.25694179 142.25609364 142.25568587 142.25548495 142.25538102 142.25532443 142.25529353 142.25527953 142.25527953 142.25529353 142.25532443 142.25538102 142.25548495 142.25568587 142.25609364 142.25694179 142.25869028 142.26213319 142.26836158 142.27826834 142.29131866 142.30403567 142.31002325 142.30336118 142.28344409 142.25514280 142.25514280 142.25514280 142.25514280 142.25514280 142.25514280 142.27867869 142.29856751 142.30837555 142.30638384 142.29644574 142.28422639 142.27368374 142.26620907 142.26153509 142.25883708 142.25734782 142.25653775 142.25609243 142.25584090 142.25569525 142.25561280 142.25557482 142.25557482 142.25561280 142.25569525 142.25584090 142.25609243 142.25653775 142.25734782 142.25883708 142.26153509 142.26620907 142.27368374 142.28422639 142.29644574 142.30638384 142.30837555 142.29856751 142.27867869 142.25514280 142.25514280 142.25514280 142.25514280 142.25514280 142.25514280 142.27040872 142.28944065 142.30318783 142.30695565 142.30186436 142.29210890 142.28175914 142.27314462 142.26691797 142.26280077 142.26022330 142.25865341 142.25770237 142.25712210 142.25676744 142.25656011 142.25646312 142.25646312 142.25656011 142.25676744 142.25712210 142.25770237 142.25865341 142.26022330 142.26280077 142.26691797 142.27314462 142.28175914 142.29210890 142.30186436 142.30695565 142.30318783 142.28944065 142.27040872 142.25514280 142.25514280 142.25514280 142.25514280 142.25514280 142.25514280 142.25514280 142.27455689 142.29276773 142.30308889 142.30467862 142.29969197 142.29148216 142.28289085 142.27551385 142.26987792 142.26588270 142.26317307 142.26137477 142.26019588 142.25943932 142.25898483 142.25876957 142.25876957 142.25898483 142.25943932 142.26019588 142.26137477 142.26317307 142.26588270 142.26987792 142.27551385 142.28289085 142.29148216 142.29969197 142.30467862 142.30308889 142.29276773 142.27455689 142.25514280 142.25514280 142.25514280 142.25514280 142.25514280 142.25514280 142.25514280 142.25514280 142.25514280 142.27794986 142.29316230 142.30174194 142.30346055 142.29995592 142.29369937 142.28673918 142.28038479 142.27521810 142.27129346 142.26843063 142.26641448 142.26506211 142.26423314 142.26383794 142.26383794 142.26423314 142.26506211 142.26641448 142.26843063 142.27129346 142.27521810 142.28038479 142.28673918 142.29369937 142.29995592 142.30346055 142.30174194 142.29316230 142.27794986 142.25514280 142.25514280 142.25514280 142.25514280 142.25514280 142.25514280 142.25514280 142.25514280 142.25514280 142.25514280 142.26495430 142.27751991 142.29115640 142.29986030 142.30285078 142.30157033 142.29757011 142.29246657 142.28743086 142.28300824 142.27938902 142.27663200 142.27471398 142.27353340 142.27297454 142.27297454 142.27353340 142.27471398 142.27663200 142.27938902 142.28300824 142.28743086 142.29246657 142.29757011 142.30157033 142.30285078 142.29986030 142.29115640 142.27751991 142.26495430 142.25514280 142.25514280 142.25514280 142.25514280 142.25514280 142.25514280 142.25514280 142.25514280 142.25514280 142.25514280 142.25514280 142.25514280 142.27363440 142.28766421 142.29643294 142.30147354 142.30264323 142.30123689 142.29855244 142.29531021 142.29206271 142.28931994 142.28739615 142.28627613 142.28577699 142.28577699 142.28627613 142.28739615 142.28931994 142.29206271 142.29531021 142.29855244 142.30123689 142.30264323 142.30147354 142.29643294 142.28766421 142.27363440 142.25514280 142.25514280 142.25514280 142.25514280 142.25514280 142.25514280 142.25514280 142.25514280 142.25514280 142.25514280 142.25514280 142.25514280 142.25514280 142.25514280 142.25514280 142.27025085 142.28002861 142.29056734 142.29694108 142.30049135 142.30208459 142.30185711 142.30049243 142.29902033 142.29821749 142.29805094 142.29809590 142.29809590 142.29805094 142.29821749 142.29902033 142.30049243 142.30185711 142.30208459 142.30049135 142.29694108 142.29056734 142.28002861 142.27025085 142.25514280 142.25514280 142.25514280 142.25514280 142.25514280 142.25514280 142.25514280 142.25514280 142.25514280 142.25514280 142.25514280 142.25514280 142.25514280 142.25514280 142.25514280 142.25514280 142.25514280 142.25514280 142.27146068 142.27973920 142.28728786 142.29331059 142.29646227 142.29753405 142.29811640 142.29960596 142.30143390 142.30256262 142.30256262 142.30143390 142.29960596 142.29811640 142.29753405 142.29646227 142.29331059 142.28728786 142.27973920 142.27146068 142.25514280 142.25514280 142.25514280 142.25514280 142.25514280 142.25514280 142.25514280 142.25514280 142.25514280 142.25514280 142.25514280 142.25514280 142.25514280 142.25514280 142.25514280 142.25514280 142.25514280 142.25514280 142.25514280 142.25514280 142.25514280 142.25514280 142.26629409 142.27451474 142.27870768 142.28068835 142.28250386 142.28713939 142.29158495 142.29393187 142.29393187 142.29158495 142.28713939 142.28250386 142.28068835 142.27870768 142.27451474 142.26629409 142.25514280 142.25514280 142.25514280 142.25514280 142.25514280 142.25514280 142.25514280 142.25514280 142.25514280 142.25514280 142.25514280 142.25514280 142.25514280 142.25514280 142.25514280 142.25514280 142.25514280 142.25514280 142.25514280 142.25514280 142.25514280 142.25514280 142.25514280 142.25514280 142.25514280 142.25514280 142.25514280 142.25514280 142.25514280 142.26581323 142.27237741 142.27505518 142.27505518 142.27237741 142.26581323 142.25514280 142.25514280 142.25514280 142.25514280 142.25514280 142.25514280 142.25514280 142.25514280 142.25514280 142.25514280 142.25514280 142.25514280 142.25514280 142.25514280 142.25514280 142.25514280 142.25514280 142.25514280 142.25514280 142.25514280 142.25514280 142.25514280 142.25514280 142.25514280 142.25514280 142.25514280 142.25514280 142.25514280 142.25514280 142.25514280 142.25514280 142.25514280 142.25514280 142.25514280 142.25514280 142.25514280 142.25514280 142.25514280 142.25514280 142.25514280 142.25514280 142.25514280 142.25514280 142.25514280 142.25514280 142.25514280 142.25514280 142.25514280 142.25514280 142.25514280 142.25514280 142.25514280 142.25514280 142.25514280 142.25514280 142.25514280 142.25514280 142.25514280 142.25514280 142.25514280 142.25514280 142.25514280 142.25514280 142.25514280 142.25514280 142.25514280 142.25514280 142.25514280 142.25514280 142.25514280 142.25514280 142.25514280 142.25514280 142.25514280 142.25514280 142.25514280 142.25514280 142.25514280 142.25514280 142.25514280 142.25514280 142.25514280 142.25514280 142.25514280 142.25514280 142.25514280 142.25514280 142.25514280 142.25514280 142.25514280 142.25514280 142.25514280 142.25514280 142.25514280 142.25514280 142.25514280 142.25514280 142.25514280 142.25514280 142.25514280 142.25514280 142.25514280 142.25514280 142.25514280 142.25514280 142.25514280 142.25514280 142.25514280 142.25514280 142.25514280 142.25514280 142.25514280 142.25514280 142.25514280 142.25514280 142.25514280 142.25514280 142.25514280 142.25514280 142.25514280 142.25514280 142.25514280 142.25514280 142.25514280 142.25514280 142.25514280 142.25514280 142.25514280 142.25514280 142.25514280 142.25514280 142.25514280 142.25514280 142.25514280 142.25514280 142.25514280 142.25514280 142.25514280 142.25514280 142.25514280 142.25514280 142.25514280 142.25514280 142.25514280 142.25514280 142.25514280 142.25514280 142.25514280 142.25514280 142.25514280 142.25514280 142.25514280 142.25514280 142.25514280 142.25514280 142.25514280 142.25514280 142.25514280 142.25514280 142.25514280 142.25514280 142.25514280 142.25514280 142.25514280 142.25514280 142.25514280 142.25514280 142.25514280 142.25514280 142.25514280 142.25514280 142.25514280 142.25514280 142.25514280 142.25514280 142.25514280 142.25514280 142.25514280 142.25514280 142.25514280 142.25514280 142.25514280 142.25514280 142.25514280 142.25514280 142.25514280 142.25514280 142.25514280 142.25514280 142.25514280 142.25514280 142.25514280 142.25514280 142.25514280 142.25514280 142.25514280 142.25514280 142.25514280 142.25514280 142.25514280 142.25514280 142.25514280 142.25514280 142.25514280 142.25514280 142.25514280 142.25514280 142.25514280 142.25514280 142.25514280 142.25514280 142.25514280 142.25514280 142.25514280 142.25514280 142.25514280 142.25514280 142.25514280 142.25514280 142.25514280 142.25514280 142.25514280 142.25514280 142.25514280 142.25514280 142.25514280 142.25514280 142.25514280 142.25514280 142.25514280 142.25514280 142.25514280 142.25514280 142.25514280 142.25514280 142.25514280 142.25514280 142.25514280 142.25514280 142.25514280 142.25514280 142.25514280 142.25514280 142.25514280 142.25514280 142.25514280 142.25514280 142.25514280 142.25514280 142.25514280 142.25514280 142.25514280 142.25514280 142.25514280 142.25514280 142.25514280 142.25514280 142.25514280 142.25514280 142.25514280 142.25514280 142.25514280 142.25514280 142.25514280 142.25514280 142.25514280 142.25514280 142.25514280 142.25514280 142.25514280 142.25514280 142.25514280 142.25514280 142.25514280 142.25514280 142.25514280 142.25514280 142.25514280 142.25514280 142.25514280 142.25514280 142.25514280 142.25514280 142.25514280 142.25514280 142.25514280 142.25514280 142.25514280 142.25514280 142.25514280 142.25514280 142.25514280 142.25514280 142.25514280 142.25514280 142.25514280 142.25514280 142.25514280 142.25514280 142.25514280 142.25514280 142.25514280 142.25514280 142.25514280 142.25514280 142.25514280 142.25514280 142.25514280 142.25514280 142.25514280 142.25514280 142.25514280 142.25514280 142.25514280 142.25514280 142.25514280 142.25514280 142.25514280 142.25514280 142.25514280 142.25514280 142.25514280 142.25514280 142.25514280 142.25514280 142.25514280 142.25514280 142.25514280 142.25514280 142.25514280 142.25514280 142.25514280 142.25514280 142.25514280 142.25514280 142.25514280 142.25514280 