# vtk DataFile Version 3.0
VTK - Matlab export
ASCII
DATASET STRUCTURED_POINTS
DIMENSIONS 40 40 1
SPACING 1 1 1
ORIGIN 0 0 0
POINT_DATA 1600
SCALARS Temperature float 1
LOOKUP_TABLE default
300.00000000 300.00000000 300.00000000 300.00000000 300.00000000 300.00000000 300.00000000 300.00000000 300.00000000 300.00000000 300.00000000 300.00000000 300.00000000 300.00000000 300.00000000 300.00000000 300.00000000 300.00000000 300.00000000 300.00000000 300.00000000 300.00000000 300.00000000 300.00000000 300.00000000 300.00000000 300.00000000 300.00000000 300.00000000 300.00000000 300.00000000 300.00000000 300.00000000 300.00000000 300.00000000 300.00000000 300.00000000 300.00000000 300.00000000 300.00000000 300.00000000 300.00000000 300.00000000 300.00000000 300.00000000 300.00000000 300.00000000 300.00000000 300.00000000 300.00000000 300.00000000 300.00000000 300.00000000 300.00000000 300.00000000 300.00000000 300.00000000 300.00000000 300.00000000 300.00000000 300.00000000 300.00000000 300.00000000 300.00000000 300.00000000 300.00000000 300.00000000 300.00000000 300.00000000 300.00000000 300.00000000 300.00000000 300.00000000 300.00000000 300.00000000 300.00000000 300.00000000 300.00000000 300.00000000 300.00000000 300.00000000 300.00000000 300.00000000 300.00000000 300.00000000 300.00000000 300.00000000 300.00000000 300.00000000 300.00000000 300.00000000 300.00000000 300.00000000 300.00000000 300.00000000 300.00000000 300.00000000 300.00000000 300.00000000 300.00000000 300.00000000 300.00000000 300.00000000 300.00000000 300.00000000 300.00000000 300.00000000 300.00000000 300.00000000 300.00000000 300.00000000 300.00000000 300.00000000 300.00000000 300.00000000 300.00000000 300.00000000 300.00000000 300.00000000 300.00000000 300.00000000 300.00000000 300.00000000 300.00000000 300.00000000 300.00000000 300.00000000 300.00000000 300.00000000 300.00000000 300.00000000 300.00000000 300.00000000 300.00000000 300.00000000 300.00000000 300.00000000 300.00000000 300.00000000 300.00000000 300.00000000 300.00000000 300.00000000 300.00000000 300.00000000 300.00000000 300.00000000 300.00000000 300.00000000 300.00000000 300.00000000 300.00000000 300.00000000 300.00000000 300.00000000 300.00000000 300.00000000 300.00000000 300.00000000 300.00000000 300.00000000 300.00000000 300.00000000 300.00000000 300.00000000 300.00000000 300.00000000 300.00000000 300.00000000 300.00000000 300.00000000 300.00000000 300.00000000 300.00000000 300.00000000 300.00000000 300.00000000 300.00000000 300.00000000 300.00000000 300.00000000 300.00000000 300.00000000 300.00000000 300.00000000 300.00000000 300.00000000 300.00000000 300.00000000 300.00000000 300.00000000 300.00000000 300.00000000 300.00000000 300.00000000 300.00000000 300.00000000 300.00000000 300.00000000 300.00000000 300.00000000 300.00000000 300.00000000 300.00000000 300.00000000 300.00000000 300.00000000 300.00000000 300.00000000 300.00000000 300.00000000 300.00000000 300.00000000 300.00000000 300.00000000 300.00000000 300.00000000 300.00000000 300.00000000 300.00000000 300.00000000 300.00000000 300.00000000 300.00000000 300.00000000 300.00000000 300.00000000 300.00000000 300.00000000 300.00000000 300.00000000 300.00000000 300.00000000 300.00000000 300.00000000 300.00000000 300.00000000 300.00000000 300.00000000 300.00000000 300.00000000 300.00000000 300.00000000 300.00000000 300.00000000 300.00000000 300.00000000 300.00000000 300.00000000 300.00000000 300.00000000 300.00000000 300.00000000 300.00000000 300.00000000 300.00000000 300.00000000 300.00000000 300.00000000 300.00000000 300.00000000 300.00000000 300.00000000 300.00000000 300.00000000 300.00000000 300.00000000 300.00000000 300.00000000 300.00000000 300.00000000 300.00000000 300.00000000 300.00000000 300.00000000 300.00000000 300.00000000 300.00000000 300.00000000 300.00000000 300.00000000 300.00000000 300.00000000 300.00000000 300.00000000 300.00000000 300.00000000 300.00000000 300.00000000 300.00000000 300.00000000 300.00000000 300.00000000 300.00000000 300.00000000 300.00000000 300.00000000 300.00000000 300.00000000 300.00000000 300.00000000 300.00000000 300.00000000 300.00000000 300.00000000 300.00000000 300.00000000 300.00000000 300.00000000 300.00000000 300.00000000 300.00000000 300.00000000 300.00000000 300.00000000 300.00000000 300.00000000 300.00000000 300.00000000 300.00000000 300.00000000 300.00000000 300.00000000 300.00000000 300.00000000 300.00000000 300.00000000 300.00000000 300.00000000 300.00000000 300.00000000 300.00000000 300.00000000 300.00000000 300.00000000 300.00000000 300.00000000 313.44229481 320.65826747 323.29973473 323.29973473 320.65826747 313.44229481 300.00000000 300.00000000 300.00000000 300.00000000 300.00000000 300.00000000 300.00000000 300.00000000 300.00000000 300.00000000 300.00000000 300.00000000 300.00000000 300.00000000 300.00000000 300.00000000 300.00000000 300.00000000 300.00000000 300.00000000 300.00000000 300.00000000 300.00000000 300.00000000 300.00000000 300.00000000 300.00000000 300.00000000 300.00000000 313.26675597 323.54579445 330.15480159 334.88179582 339.24471761 345.93254580 351.28229235 353.86553027 353.86553027 351.28229235 345.93254580 339.24471761 334.88179582 330.15480159 323.54579445 313.26675597 300.00000000 300.00000000 300.00000000 300.00000000 300.00000000 300.00000000 300.00000000 300.00000000 300.00000000 300.00000000 300.00000000 300.00000000 300.00000000 300.00000000 300.00000000 300.00000000 300.00000000 300.00000000 300.00000000 300.00000000 300.00000000 300.00000000 318.77670788 330.08824373 342.10137010 353.58157386 362.93168789 370.38857246 376.64963309 382.37720659 386.75754473 389.03267299 389.03267299 386.75754473 382.37720659 376.64963309 370.38857246 362.93168789 353.58157386 342.10137010 330.08824373 318.77670788 300.00000000 300.00000000 300.00000000 300.00000000 300.00000000 300.00000000 300.00000000 300.00000000 300.00000000 300.00000000 300.00000000 300.00000000 300.00000000 300.00000000 300.00000000 300.00000000 300.00000000 300.00000000 316.47300611 329.36833854 345.54001619 360.11503625 373.79852749 386.42936472 397.32512626 406.36459437 413.74347770 419.63053727 423.80393527 425.95647392 425.95647392 423.80393527 419.63053727 413.74347770 406.36459437 397.32512626 386.42936472 373.79852749 360.11503625 345.54001619 329.36833854 316.47300611 300.00000000 300.00000000 300.00000000 300.00000000 300.00000000 300.00000000 300.00000000 300.00000000 300.00000000 300.00000000 300.00000000 300.00000000 300.00000000 300.00000000 300.00000000 320.13395920 338.71642473 356.26456705 373.94523819 390.59480234 405.95037760 419.79554630 431.80641603 441.84677399 449.94207521 456.13306563 460.35473162 462.49662912 462.49662912 460.35473162 456.13306563 449.94207521 441.84677399 431.80641603 419.79554630 405.95037760 390.59480234 373.94523819 356.26456705 338.71642473 320.13395920 300.00000000 300.00000000 300.00000000 300.00000000 300.00000000 300.00000000 300.00000000 300.00000000 300.00000000 300.00000000 300.00000000 300.00000000 309.06950050 322.99920459 342.38310717 362.65229916 382.71011107 402.20723994 420.51133336 437.23072546 452.10534006 464.93010664 475.60912631 484.14123867 490.55364896 494.84765993 497.00245647 497.00245647 494.84765993 490.55364896 484.14123867 475.60912631 464.93010664 452.10534006 437.23072546 420.51133336 402.20723994 382.71011107 362.65229916 342.38310717 322.99920459 309.06950050 300.00000000 300.00000000 300.00000000 300.00000000 300.00000000 300.00000000 300.00000000 300.00000000 300.00000000 300.00000000 321.71327744 342.05165422 363.74395251 385.98166135 407.95445806 429.03611567 448.65895525 466.41719877 482.05241584 495.41654747 506.46104345 515.21016237 521.71782013 526.03192732 528.18214122 528.18214122 526.03192732 521.71782013 515.21016237 506.46104345 495.41654747 482.05241584 466.41719877 448.65895525 429.03611567 407.95445806 385.98166135 363.74395251 342.05165422 321.71327744 300.00000000 300.00000000 300.00000000 300.00000000 300.00000000 300.00000000 300.00000000 300.00000000 300.00000000 316.46835498 337.21234832 359.70917590 383.36830276 407.36960574 430.90119564 453.26425338 473.89387572 492.39306619 508.52653024 522.19219448 533.39054523 542.18830158 548.67914681 552.95170658 555.07105953 555.07105953 552.95170658 548.67914681 542.18830158 533.39054523 522.19219448 508.52653024 492.39306619 473.89387572 453.26425338 430.90119564 407.36960574 383.36830276 359.70917590 337.21234832 316.46835498 300.00000000 300.00000000 300.00000000 300.00000000 300.00000000 300.00000000 300.00000000 311.27798327 329.06975361 350.91974112 375.04263742 400.31515906 425.76797106 450.53223311 473.87484560 495.23025501 514.21825386 530.63462577 544.42104060 555.62563818 564.36016365 570.75913227 574.94702732 577.01652777 577.01652777 574.94702732 570.75913227 564.36016365 555.62563818 544.42104060 530.63462577 514.21825386 495.23025501 473.87484560 450.53223311 425.76797106 400.31515906 375.04263742 350.91974112 329.06975361 311.27798327 300.00000000 300.00000000 300.00000000 300.00000000 300.00000000 300.00000000 317.51656169 338.09612522 361.63437735 387.19594931 413.75578723 440.32331575 466.00186578 490.04303477 511.88496304 531.16642028 547.71398785 561.50830354 572.63918970 581.25816945 587.53510948 591.62376531 593.63804695 593.63804695 591.62376531 587.53510948 581.25816945 572.63918970 561.50830354 547.71398785 531.16642028 511.88496304 490.04303477 466.00186578 440.32331575 413.75578723 387.19594931 361.63437735 338.09612522 317.51656169 300.00000000 300.00000000 300.00000000 300.00000000 300.00000000 300.00000000 321.46206762 344.09941828 368.97843496 395.60199519 423.06372348 450.38776639 476.66935240 501.15520969 523.28922922 542.72638474 559.31762027 573.07302291 584.11336483 592.61953018 598.78711353 602.79060454 604.75852287 604.75852287 602.79060454 598.78711353 592.61953018 584.11336483 573.07302291 559.31762027 542.72638474 523.28922922 501.15520969 476.66935240 450.38776639 423.06372348 395.60199519 368.97843496 344.09941828 321.46206762 300.00000000 300.00000000 300.00000000 300.00000000 300.00000000 306.27719599 324.63217972 347.35241921 372.75781841 399.90422049 427.82342756 455.52845994 482.10892151 506.80992461 529.07926153 548.58116485 565.17997903 578.90164844 589.88342947 598.32174717 604.42569815 608.38051386 610.32218051 610.32218051 608.38051386 604.42569815 598.32174717 589.88342947 578.90164844 565.17997903 548.58116485 529.07926153 506.80992461 482.10892151 455.52845994 427.82342756 399.90422049 372.75781841 347.35241921 324.63217972 306.27719599 300.00000000 300.00000000 300.00000000 300.00000000 306.27719599 324.63217972 347.35241921 372.75781841 399.90422049 427.82342756 455.52845994 482.10892151 506.80992461 529.07926153 548.58116485 565.17997903 578.90164844 589.88342947 598.32174717 604.42569815 608.38051386 610.32218051 610.32218051 608.38051386 604.42569815 598.32174717 589.88342947 578.90164844 565.17997903 548.58116485 529.07926153 506.80992461 482.10892151 455.52845994 427.82342756 399.90422049 372.75781841 347.35241921 324.63217972 306.27719599 300.00000000 300.00000000 300.00000000 300.00000000 300.00000000 321.46206762 344.09941828 368.97843496 395.60199519 423.06372348 450.38776639 476.66935240 501.15520969 523.28922922 542.72638474 559.31762027 573.07302291 584.11336483 592.61953018 598.78711353 602.79060454 604.75852287 604.75852287 602.79060454 598.78711353 592.61953018 584.11336483 573.07302291 559.31762027 542.72638474 523.28922922 501.15520969 476.66935240 450.38776639 423.06372348 395.60199519 368.97843496 344.09941828 321.46206762 300.00000000 300.00000000 300.00000000 300.00000000 300.00000000 300.00000000 317.51656169 338.09612522 361.63437735 387.19594931 413.75578723 440.32331575 466.00186578 490.04303477 511.88496304 531.16642028 547.71398785 561.50830354 572.63918970 581.25816945 587.53510948 591.62376531 593.63804695 593.63804695 591.62376531 587.53510948 581.25816945 572.63918970 561.50830354 547.71398785 531.16642028 511.88496304 490.04303477 466.00186578 440.32331575 413.75578723 387.19594931 361.63437735 338.09612522 317.51656169 300.00000000 300.00000000 300.00000000 300.00000000 300.00000000 300.00000000 311.27798327 329.06975361 350.91974112 375.04263742 400.31515906 425.76797106 450.53223311 473.87484560 495.23025501 514.21825386 530.63462577 544.42104060 555.62563818 564.36016365 570.75913227 574.94702732 577.01652777 577.01652777 574.94702732 570.75913227 564.36016365 555.62563818 544.42104060 530.63462577 514.21825386 495.23025501 473.87484560 450.53223311 425.76797106 400.31515906 375.04263742 350.91974112 329.06975361 311.27798327 300.00000000 300.00000000 300.00000000 300.00000000 300.00000000 300.00000000 300.00000000 316.46835498 337.21234832 359.70917590 383.36830276 407.36960574 430.90119564 453.26425338 473.89387572 492.39306619 508.52653024 522.19219448 533.39054523 542.18830158 548.67914681 552.95170658 555.07105953 555.07105953 552.95170658 548.67914681 542.18830158 533.39054523 522.19219448 508.52653024 492.39306619 473.89387572 453.26425338 430.90119564 407.36960574 383.36830276 359.70917590 337.21234832 316.46835498 300.00000000 300.00000000 300.00000000 300.00000000 300.00000000 300.00000000 300.00000000 300.00000000 300.00000000 321.71327744 342.05165422 363.74395251 385.98166135 407.95445806 429.03611567 448.65895525 466.41719877 482.05241584 495.41654747 506.46104345 515.21016237 521.71782013 526.03192732 528.18214122 528.18214122 526.03192732 521.71782013 515.21016237 506.46104345 495.41654747 482.05241584 466.41719877 448.65895525 429.03611567 407.95445806 385.98166135 363.74395251 342.05165422 321.71327744 300.00000000 300.00000000 300.00000000 300.00000000 300.00000000 300.00000000 300.00000000 300.00000000 300.00000000 300.00000000 309.06950050 322.99920459 342.38310717 362.65229916 382.71011107 402.20723994 420.51133336 437.23072546 452.10534006 464.93010664 475.60912631 484.14123867 490.55364896 494.84765993 497.00245647 497.00245647 494.84765993 490.55364896 484.14123867 475.60912631 464.93010664 452.10534006 437.23072546 420.51133336 402.20723994 382.71011107 362.65229916 342.38310717 322.99920459 309.06950050 300.00000000 300.00000000 300.00000000 300.00000000 300.00000000 300.00000000 300.00000000 300.00000000 300.00000000 300.00000000 300.00000000 300.00000000 320.13395920 338.71642473 356.26456705 373.94523819 390.59480234 405.95037760 419.79554630 431.80641603 441.84677399 449.94207521 456.13306563 460.35473162 462.49662912 462.49662912 460.35473162 456.13306563 449.94207521 441.84677399 431.80641603 419.79554630 405.95037760 390.59480234 373.94523819 356.26456705 338.71642473 320.13395920 300.00000000 300.00000000 300.00000000 300.00000000 300.00000000 300.00000000 300.00000000 300.00000000 300.00000000 300.00000000 300.00000000 300.00000000 300.00000000 300.00000000 300.00000000 316.47300611 329.36833854 345.54001619 360.11503625 373.79852749 386.42936472 397.32512626 406.36459437 413.74347770 419.63053727 423.80393527 425.95647392 425.95647392 423.80393527 419.63053727 413.74347770 406.36459437 397.32512626 386.42936472 373.79852749 360.11503625 345.54001619 329.36833854 316.47300611 300.00000000 300.00000000 300.00000000 300.00000000 300.00000000 300.00000000 300.00000000 300.00000000 300.00000000 300.00000000 300.00000000 300.00000000 300.00000000 300.00000000 300.00000000 300.00000000 300.00000000 300.00000000 318.77670788 330.08824373 342.10137010 353.58157386 362.93168789 370.38857246 376.64963309 382.37720659 386.75754473 389.03267299 389.03267299 386.75754473 382.37720659 376.64963309 370.38857246 362.93168789 353.58157386 342.10137010 330.08824373 318.77670788 300.00000000 300.00000000 300.00000000 300.00000000 300.00000000 300.00000000 300.00000000 300.00000000 300.00000000 300.00000000 300.00000000 300.00000000 300.00000000 300.00000000 300.00000000 300.00000000 300.00000000 300.00000000 300.00000000 300.00000000 300.00000000 300.00000000 313.26675597 323.54579445 330.15480159 334.88179582 339.24471761 345.93254580 351.28229235 353.86553027 353.86553027 351.28229235 345.93254580 339.24471761 334.88179582 330.15480159 323.54579445 313.26675597 300.00000000 300.00000000 300.00000000 300.00000000 300.00000000 300.00000000 300.00000000 300.00000000 300.00000000 300.00000000 300.00000000 300.00000000 300.00000000 300.00000000 300.00000000 300.00000000 300.00000000 300.00000000 300.00000000 300.00000000 300.00000000 300.00000000 300.00000000 300.00000000 300.00000000 300.00000000 300.00000000 300.00000000 300.00000000 313.44229481 320.65826747 323.29973473 323.29973473 320.65826747 313.44229481 300.00000000 300.00000000 300.00000000 300.00000000 300.00000000 300.00000000 300.00000000 300.00000000 300.00000000 300.00000000 300.00000000 300.00000000 300.00000000 300.00000000 300.00000000 300.00000000 300.00000000 300.00000000 300.00000000 300.00000000 300.00000000 300.00000000 300.00000000 300.00000000 300.00000000 300.00000000 300.00000000 300.00000000 300.00000000 300.00000000 300.00000000 300.00000000 300.00000000 300.00000000 300.00000000 300.00000000 300.00000000 300.00000000 300.00000000 300.00000000 300.00000000 300.00000000 300.00000000 300.00000000 300.00000000 300.00000000 300.00000000 300.00000000 300.00000000 300.00000000 300.00000000 300.00000000 300.00000000 300.00000000 300.00000000 300.00000000 300.00000000 300.00000000 300.00000000 300.00000000 300.00000000 300.00000000 300.00000000 300.00000000 300.00000000 300.00000000 300.00000000 300.00000000 300.00000000 300.00000000 300.00000000 300.00000000 300.00000000 300.00000000 300.00000000 300.00000000 300.00000000 300.00000000 300.00000000 300.00000000 300.00000000 300.00000000 300.00000000 300.00000000 300.00000000 300.00000000 300.00000000 300.00000000 300.00000000 300.00000000 300.00000000 300.00000000 300.00000000 300.00000000 300.00000000 300.00000000 300.00000000 300.00000000 300.00000000 300.00000000 300.00000000 300.00000000 300.00000000 300.00000000 300.00000000 300.00000000 300.00000000 300.00000000 300.00000000 300.00000000 300.00000000 300.00000000 300.00000000 300.00000000 300.00000000 300.00000000 300.00000000 300.00000000 300.00000000 300.00000000 300.00000000 300.00000000 300.00000000 300.00000000 300.00000000 300.00000000 300.00000000 300.00000000 300.00000000 300.00000000 300.00000000 300.00000000 300.00000000 300.00000000 300.00000000 300.00000000 300.00000000 300.00000000 300.00000000 300.00000000 300.00000000 300.00000000 300.00000000 300.00000000 300.00000000 300.00000000 300.00000000 300.00000000 300.00000000 300.00000000 300.00000000 300.00000000 300.00000000 300.00000000 300.00000000 300.00000000 300.00000000 300.00000000 300.00000000 300.00000000 300.00000000 300.00000000 300.00000000 300.00000000 300.00000000 300.00000000 300.00000000 300.00000000 300.00000000 300.00000000 300.00000000 300.00000000 300.00000000 300.00000000 300.00000000 300.00000000 300.00000000 300.00000000 300.00000000 300.00000000 300.00000000 300.00000000 300.00000000 300.00000000 300.00000000 300.00000000 300.00000000 300.00000000 300.00000000 300.00000000 300.00000000 300.00000000 300.00000000 300.00000000 300.00000000 300.00000000 300.00000000 300.00000000 300.00000000 300.00000000 300.00000000 300.00000000 300.00000000 300.00000000 300.00000000 300.00000000 300.00000000 300.00000000 300.00000000 300.00000000 300.00000000 300.00000000 300.00000000 300.00000000 300.00000000 300.00000000 300.00000000 300.00000000 300.00000000 300.00000000 300.00000000 300.00000000 300.00000000 300.00000000 300.00000000 300.00000000 300.00000000 300.00000000 300.00000000 300.00000000 300.00000000 300.00000000 300.00000000 300.00000000 300.00000000 300.00000000 300.00000000 300.00000000 300.00000000 300.00000000 300.00000000 300.00000000 300.00000000 300.00000000 300.00000000 300.00000000 300.00000000 300.00000000 300.00000000 300.00000000 300.00000000 300.00000000 300.00000000 300.00000000 300.00000000 300.00000000 300.00000000 300.00000000 300.00000000 300.00000000 300.00000000 300.00000000 300.00000000 300.00000000 300.00000000 300.00000000 300.00000000 300.00000000 300.00000000 300.00000000 300.00000000 300.00000000 300.00000000 300.00000000 300.00000000 300.00000000 300.00000000 300.00000000 300.00000000 300.00000000 300.00000000 300.00000000 300.00000000 300.00000000 300.00000000 300.00000000 300.00000000 300.00000000 300.00000000 300.00000000 300.00000000 300.00000000 300.00000000 300.00000000 300.00000000 300.00000000 300.00000000 300.00000000 300.00000000 300.00000000 300.00000000 300.00000000 300.00000000 300.00000000 300.00000000 300.00000000 300.00000000 300.00000000 300.00000000 300.00000000 300.00000000 300.00000000 300.00000000 300.00000000 300.00000000 300.00000000 300.00000000 300.00000000 300.00000000 300.00000000 300.00000000 300.00000000 300.00000000 300.00000000 300.00000000 300.00000000 300.00000000 300.00000000 300.00000000 300.00000000 300.00000000 300.00000000 300.00000000 300.00000000 300.00000000 300.00000000 300.00000000 