# vtk DataFile Version 3.0
VTK - Matlab export
ASCII
DATASET STRUCTURED_POINTS
DIMENSIONS 40 40 1
SPACING 1 1 1
ORIGIN 0 0 0
POINT_DATA 1600
SCALARS Proofstrength float 1
LOOKUP_TABLE default
142.25514280 142.25514280 142.25514280 142.25514280 142.25514280 142.25514280 142.25514280 142.25514280 142.25514280 142.25514280 142.25514280 142.25514280 142.25514280 142.25514280 142.25514280 142.25514280 142.25514280 142.25514280 142.25514280 142.25514280 142.25514280 142.25514280 142.25514280 142.25514280 142.25514280 142.25514280 142.25514280 142.25514280 142.25514280 142.25514280 142.25514280 142.25514280 142.25514280 142.25514280 142.25514280 142.25514280 142.25514280 142.25514280 142.25514280 142.25514280 142.25514280 142.25514280 142.25514280 142.25514280 142.25514280 142.25514280 142.25514280 142.25514280 142.25514280 142.25514280 142.25514280 142.25514280 142.25514280 142.25514280 142.25514280 142.25514280 142.25514280 142.25514280 142.25514280 142.25514280 142.25514280 142.25514280 142.25514280 142.25514280 142.25514280 142.25514280 142.25514280 142.25514280 142.25514280 142.25514280 142.25514280 142.25514280 142.25514280 142.25514280 142.25514280 142.25514280 142.25514280 142.25514280 142.25514280 142.25514280 142.25514280 142.25514280 142.25514280 142.25514280 142.25514280 142.25514280 142.25514280 142.25514280 142.25514280 142.25514280 142.25514280 142.25514280 142.25514280 142.25514280 142.25514280 142.25514280 142.25514280 142.25514280 142.25514280 142.25514280 142.25514280 142.25514280 142.25514280 142.25514280 142.25514280 142.25514280 142.25514280 142.25514280 142.25514280 142.25514280 142.25514280 142.25514280 142.25514280 142.25514280 142.25514280 142.25514280 142.25514280 142.25514280 142.25514280 142.25514280 142.25514280 142.25514280 142.25514280 142.25514280 142.25514280 142.25514280 142.25514280 142.25514280 142.25514280 142.25514280 142.25514280 142.25514280 142.25514280 142.25514280 142.25514280 142.25514280 142.25514280 142.25514280 142.25514280 142.25514280 142.25514280 142.25514280 142.25514280 142.25514280 142.25514280 142.25514280 142.25514280 142.25514280 142.25514280 142.25514280 142.25514280 142.25514280 142.25514280 142.25514280 142.25514280 142.25514280 142.25514280 142.25514280 142.25514280 142.25514280 142.25514280 142.25514280 142.25514280 142.25514280 142.25514280 142.25514280 142.25514280 142.25514280 142.25514280 142.25514280 142.25514280 142.25514280 142.25514280 142.25514280 142.25514280 142.25514280 142.25514280 142.25514280 142.25514280 142.25514280 142.25514280 142.25514280 142.25514280 142.25514280 142.25514280 142.25514280 142.25514280 142.25514280 142.25514280 142.25514280 142.25514280 142.25514280 142.25514280 142.25514280 142.25514280 142.25514280 142.25514280 142.25514280 142.25514280 142.25514280 142.25514280 142.25514280 142.25514280 142.25514280 142.25514280 142.25514280 142.25514280 142.25514280 142.25514280 142.25514280 142.25514280 142.25514280 142.25514280 142.25514280 142.25514280 142.25514280 142.25514280 142.25514280 142.25514280 142.25514280 142.25514280 142.25514280 142.25514280 142.25514280 142.25514280 142.25514280 142.25514280 142.25514280 142.25514280 142.25514280 142.25514280 142.25514280 142.25514280 142.25514280 142.25514280 142.25514280 142.25514280 142.25514280 142.25514280 142.25514280 142.25514280 142.25514280 142.25514280 142.25514280 142.25514280 142.25514280 142.25514280 142.25514280 142.25514280 142.25514280 142.25514280 142.25514280 142.25514280 142.25514280 142.25514280 142.25514280 142.25514280 142.25514280 142.25514280 142.25514280 142.25514280 142.25514280 142.25514280 142.25514280 142.25514280 142.25514280 142.25514280 142.25514280 142.25514280 142.25514280 142.25514280 142.25514280 142.25514280 142.25514280 142.25514280 142.25514280 142.25514280 142.25514280 142.25514280 142.25514280 142.25514280 142.25514280 142.25514280 142.25514280 142.25514280 142.25514280 142.25514280 142.25514280 142.25514280 142.25514280 142.25514280 142.25514280 142.25514280 142.25514280 142.25514280 142.25514280 142.25514280 142.25514280 142.25514280 142.25514280 142.25514280 142.25514280 142.25514280 142.25514280 142.25514280 142.25514280 142.25514280 142.25514280 142.25514280 142.25514280 142.25514280 142.25514280 142.25514280 142.25514280 142.25514280 142.25514280 142.25514280 142.25514280 142.25514280 142.25514280 142.25514280 142.25514280 142.25514280 142.25514280 142.25514280 142.25514280 142.25514280 142.25514280 142.25514280 142.25514280 142.25514280 142.25514280 142.25514280 142.25514280 142.25514280 142.25514280 142.25514280 142.25630137 142.25692325 142.25715013 142.25715013 142.25692325 142.25630137 142.25514280 142.25514280 142.25514280 142.25514280 142.25514280 142.25514280 142.25514280 142.25514280 142.25514280 142.25514280 142.25514280 142.25514280 142.25514280 142.25514280 142.25514280 142.25514280 142.25514280 142.25514280 142.25514280 142.25514280 142.25514280 142.25514280 142.25514280 142.25514280 142.25514280 142.25514280 142.25514280 142.25514280 142.25514280 142.25636474 142.25727838 142.25783206 142.25820112 142.25853414 142.25907738 142.25951605 142.25972683 142.25972683 142.25951605 142.25907738 142.25853414 142.25820112 142.25783206 142.25727838 142.25636474 142.25514280 142.25514280 142.25514280 142.25514280 142.25514280 142.25514280 142.25514280 142.25514280 142.25514280 142.25514280 142.25514280 142.25514280 142.25514280 142.25514280 142.25514280 142.25514280 142.25514280 142.25514280 142.25514280 142.25514280 142.25514280 142.25514280 142.25695555 142.25798687 142.25902962 142.25997932 142.26070182 142.26123673 142.26166687 142.26206858 142.26238121 142.26254365 142.26254365 142.26238121 142.26206858 142.26166687 142.26123673 142.26070182 142.25997932 142.25902962 142.25798687 142.25695555 142.25514280 142.25514280 142.25514280 142.25514280 142.25514280 142.25514280 142.25514280 142.25514280 142.25514280 142.25514280 142.25514280 142.25514280 142.25514280 142.25514280 142.25514280 142.25514280 142.25514280 142.25514280 142.25682364 142.25806880 142.25955916 142.26080996 142.26189932 142.26283276 142.26357127 142.26413100 142.26455728 142.26488917 142.26512404 142.26524489 142.26524489 142.26512404 142.26488917 142.26455728 142.26413100 142.26357127 142.26283276 142.26189932 142.26080996 142.25955916 142.25806880 142.25682364 142.25514280 142.25514280 142.25514280 142.25514280 142.25514280 142.25514280 142.25514280 142.25514280 142.25514280 142.25514280 142.25514280 142.25514280 142.25514280 142.25514280 142.25514280 142.25726501 142.25912596 142.26076261 142.26228891 142.26359657 142.26468100 142.26555408 142.26622327 142.26671507 142.26706855 142.26731834 142.26748138 142.26756222 142.26756222 142.26748138 142.26731834 142.26706855 142.26671507 142.26622327 142.26555408 142.26468100 142.26359657 142.26228891 142.26076261 142.25912596 142.25726501 142.25514280 142.25514280 142.25514280 142.25514280 142.25514280 142.25514280 142.25514280 142.25514280 142.25514280 142.25514280 142.25514280 142.25514280 142.25615740 142.25766161 142.25966005 142.26161424 142.26338315 142.26492805 142.26620290 142.26720404 142.26795368 142.26848516 142.26884162 142.26906969 142.26920999 142.26929054 142.26932725 142.26932725 142.26929054 142.26920999 142.26906969 142.26884162 142.26848516 142.26795368 142.26720404 142.26620290 142.26492805 142.26338315 142.26161424 142.25966005 142.25766161 142.25615740 142.25514280 142.25514280 142.25514280 142.25514280 142.25514280 142.25514280 142.25514280 142.25514280 142.25514280 142.25514280 142.25759833 142.25979087 142.26197456 142.26402201 142.26582623 142.26732700 142.26849680 142.26934613 142.26991390 142.27025447 142.27042856 142.27049496 142.27050331 142.27049004 142.27047798 142.27047798 142.27049004 142.27050331 142.27049496 142.27042856 142.27025447 142.26991390 142.26934613 142.26849680 142.26732700 142.26582623 142.26402201 142.26197456 142.25979087 142.25759833 142.25514280 142.25514280 142.25514280 142.25514280 142.25514280 142.25514280 142.25514280 142.25514280 142.25514280 142.25706719 142.25940187 142.26178902 142.26409832 142.26619500 142.26797438 142.26937733 142.27039040 142.27104173 142.27138969 142.27150860 142.27147620 142.27136393 142.27123048 142.27111886 142.27105649 142.27105649 142.27111886 142.27123048 142.27136393 142.27147620 142.27150860 142.27138969 142.27104173 142.27039040 142.26937733 142.26797438 142.26619500 142.26409832 142.26178902 142.25940187 142.25706719 142.25514280 142.25514280 142.25514280 142.25514280 142.25514280 142.25514280 142.25514280 142.25649603 142.25857632 142.26101772 142.26353182 142.26591930 142.26802524 142.26974202 142.27101634 142.27184878 142.27228569 142.27240487 142.27229909 142.27206138 142.27177444 142.27150455 142.27129961 142.27118990 142.27118990 142.27129961 142.27150455 142.27177444 142.27206138 142.27229909 142.27240487 142.27228569 142.27184878 142.27101634 142.26974202 142.26802524 142.26591930 142.26353182 142.26101772 142.25857632 142.25649603 142.25514280 142.25514280 142.25514280 142.25514280 142.25514280 142.25514280 142.25725782 142.25967204 142.26228900 142.26491212 142.26734874 142.26944053 142.27108087 142.27222389 142.27288334 142.27312201 142.27303478 142.27272992 142.27231290 142.27187529 142.27148899 142.27120512 142.27105561 142.27105561 142.27120512 142.27148899 142.27187529 142.27231290 142.27272992 142.27303478 142.27312201 142.27288334 142.27222389 142.27108087 142.26944053 142.26734874 142.26491212 142.26228900 142.25967204 142.25725782 142.25514280 142.25514280 142.25514280 142.25514280 142.25514280 142.25514280 142.25774535 142.26040648 142.26316278 142.26586408 142.26832850 142.27039938 142.27197280 142.27300954 142.27353374 142.27362065 142.27337781 142.27292468 142.27237549 142.27182778 142.27135705 142.27101628 142.27083819 142.27083819 142.27101628 142.27135705 142.27182778 142.27237549 142.27292468 142.27337781 142.27362065 142.27353374 142.27300954 142.27197280 142.27039938 142.26832850 142.26586408 142.26316278 142.26040648 142.25774535 142.25514280 142.25514280 142.25514280 142.25514280 142.25514280 142.25591260 142.25813939 142.26080673 142.26361321 142.26635010 142.26882581 142.27088226 142.27241698 142.27339449 142.27384465 142.27384944 142.27352312 142.27299101 142.27237184 142.27176614 142.27125116 142.27088067 142.27068769 142.27068769 142.27088067 142.27125116 142.27176614 142.27237184 142.27299101 142.27352312 142.27384944 142.27384465 142.27339449 142.27241698 142.27088226 142.26882581 142.26635010 142.26361321 142.26080673 142.25813939 142.25591260 142.25514280 142.25514280 142.25514280 142.25514280 142.25591260 142.25813939 142.26080673 142.26361321 142.26635010 142.26882581 142.27088226 142.27241698 142.27339449 142.27384465 142.27384944 142.27352312 142.27299101 142.27237184 142.27176614 142.27125116 142.27088067 142.27068769 142.27068769 142.27088067 142.27125116 142.27176614 142.27237184 142.27299101 142.27352312 142.27384944 142.27384465 142.27339449 142.27241698 142.27088226 142.26882581 142.26635010 142.26361321 142.26080673 142.25813939 142.25591260 142.25514280 142.25514280 142.25514280 142.25514280 142.25514280 142.25774535 142.26040648 142.26316278 142.26586408 142.26832850 142.27039938 142.27197280 142.27300954 142.27353374 142.27362065 142.27337781 142.27292468 142.27237549 142.27182778 142.27135705 142.27101628 142.27083819 142.27083819 142.27101628 142.27135705 142.27182778 142.27237549 142.27292468 142.27337781 142.27362065 142.27353374 142.27300954 142.27197280 142.27039938 142.26832850 142.26586408 142.26316278 142.26040648 142.25774535 142.25514280 142.25514280 142.25514280 142.25514280 142.25514280 142.25514280 142.25725782 142.25967204 142.26228900 142.26491212 142.26734874 142.26944053 142.27108087 142.27222389 142.27288334 142.27312201 142.27303478 142.27272992 142.27231290 142.27187529 142.27148899 142.27120512 142.27105561 142.27105561 142.27120512 142.27148899 142.27187529 142.27231290 142.27272992 142.27303478 142.27312201 142.27288334 142.27222389 142.27108087 142.26944053 142.26734874 142.26491212 142.26228900 142.25967204 142.25725782 142.25514280 142.25514280 142.25514280 142.25514280 142.25514280 142.25514280 142.25649603 142.25857632 142.26101772 142.26353182 142.26591930 142.26802524 142.26974202 142.27101634 142.27184878 142.27228569 142.27240487 142.27229909 142.27206138 142.27177444 142.27150455 142.27129961 142.27118990 142.27118990 142.27129961 142.27150455 142.27177444 142.27206138 142.27229909 142.27240487 142.27228569 142.27184878 142.27101634 142.26974202 142.26802524 142.26591930 142.26353182 142.26101772 142.25857632 142.25649603 142.25514280 142.25514280 142.25514280 142.25514280 142.25514280 142.25514280 142.25514280 142.25706719 142.25940187 142.26178902 142.26409832 142.26619500 142.26797438 142.26937733 142.27039040 142.27104173 142.27138969 142.27150860 142.27147620 142.27136393 142.27123048 142.27111886 142.27105649 142.27105649 142.27111886 142.27123048 142.27136393 142.27147620 142.27150860 142.27138969 142.27104173 142.27039040 142.26937733 142.26797438 142.26619500 142.26409832 142.26178902 142.25940187 142.25706719 142.25514280 142.25514280 142.25514280 142.25514280 142.25514280 142.25514280 142.25514280 142.25514280 142.25514280 142.25759833 142.25979087 142.26197456 142.26402201 142.26582623 142.26732700 142.26849680 142.26934613 142.26991390 142.27025447 142.27042856 142.27049496 142.27050331 142.27049004 142.27047798 142.27047798 142.27049004 142.27050331 142.27049496 142.27042856 142.27025447 142.26991390 142.26934613 142.26849680 142.26732700 142.26582623 142.26402201 142.26197456 142.25979087 142.25759833 142.25514280 142.25514280 142.25514280 142.25514280 142.25514280 142.25514280 142.25514280 142.25514280 142.25514280 142.25514280 142.25615740 142.25766161 142.25966005 142.26161424 142.26338315 142.26492805 142.26620290 142.26720404 142.26795368 142.26848516 142.26884162 142.26906969 142.26920999 142.26929054 142.26932725 142.26932725 142.26929054 142.26920999 142.26906969 142.26884162 142.26848516 142.26795368 142.26720404 142.26620290 142.26492805 142.26338315 142.26161424 142.25966005 142.25766161 142.25615740 142.25514280 142.25514280 142.25514280 142.25514280 142.25514280 142.25514280 142.25514280 142.25514280 142.25514280 142.25514280 142.25514280 142.25514280 142.25726501 142.25912596 142.26076261 142.26228891 142.26359657 142.26468100 142.26555408 142.26622327 142.26671507 142.26706855 142.26731834 142.26748138 142.26756222 142.26756222 142.26748138 142.26731834 142.26706855 142.26671507 142.26622327 142.26555408 142.26468100 142.26359657 142.26228891 142.26076261 142.25912596 142.25726501 142.25514280 142.25514280 142.25514280 142.25514280 142.25514280 142.25514280 142.25514280 142.25514280 142.25514280 142.25514280 142.25514280 142.25514280 142.25514280 142.25514280 142.25514280 142.25682364 142.25806880 142.25955916 142.26080996 142.26189932 142.26283276 142.26357127 142.26413100 142.26455728 142.26488917 142.26512404 142.26524489 142.26524489 142.26512404 142.26488917 142.26455728 142.26413100 142.26357127 142.26283276 142.26189932 142.26080996 142.25955916 142.25806880 142.25682364 142.25514280 142.25514280 142.25514280 142.25514280 142.25514280 142.25514280 142.25514280 142.25514280 142.25514280 142.25514280 142.25514280 142.25514280 142.25514280 142.25514280 142.25514280 142.25514280 142.25514280 142.25514280 142.25695555 142.25798687 142.25902962 142.25997932 142.26070182 142.26123673 142.26166687 142.26206858 142.26238121 142.26254365 142.26254365 142.26238121 142.26206858 142.26166687 142.26123673 142.26070182 142.25997932 142.25902962 142.25798687 142.25695555 142.25514280 142.25514280 142.25514280 142.25514280 142.25514280 142.25514280 142.25514280 142.25514280 142.25514280 142.25514280 142.25514280 142.25514280 142.25514280 142.25514280 142.25514280 142.25514280 142.25514280 142.25514280 142.25514280 142.25514280 142.25514280 142.25514280 142.25636474 142.25727838 142.25783206 142.25820112 142.25853414 142.25907738 142.25951605 142.25972683 142.25972683 142.25951605 142.25907738 142.25853414 142.25820112 142.25783206 142.25727838 142.25636474 142.25514280 142.25514280 142.25514280 142.25514280 142.25514280 142.25514280 142.25514280 142.25514280 142.25514280 142.25514280 142.25514280 142.25514280 142.25514280 142.25514280 142.25514280 142.25514280 142.25514280 142.25514280 142.25514280 142.25514280 142.25514280 142.25514280 142.25514280 142.25514280 142.25514280 142.25514280 142.25514280 142.25514280 142.25514280 142.25630137 142.25692325 142.25715013 142.25715013 142.25692325 142.25630137 142.25514280 142.25514280 142.25514280 142.25514280 142.25514280 142.25514280 142.25514280 142.25514280 142.25514280 142.25514280 142.25514280 142.25514280 142.25514280 142.25514280 142.25514280 142.25514280 142.25514280 142.25514280 142.25514280 142.25514280 142.25514280 142.25514280 142.25514280 142.25514280 142.25514280 142.25514280 142.25514280 142.25514280 142.25514280 142.25514280 142.25514280 142.25514280 142.25514280 142.25514280 142.25514280 142.25514280 142.25514280 142.25514280 142.25514280 142.25514280 142.25514280 142.25514280 142.25514280 142.25514280 142.25514280 142.25514280 142.25514280 142.25514280 142.25514280 142.25514280 142.25514280 142.25514280 142.25514280 142.25514280 142.25514280 142.25514280 142.25514280 142.25514280 142.25514280 142.25514280 142.25514280 142.25514280 142.25514280 142.25514280 142.25514280 142.25514280 142.25514280 142.25514280 142.25514280 142.25514280 142.25514280 142.25514280 142.25514280 142.25514280 142.25514280 142.25514280 142.25514280 142.25514280 142.25514280 142.25514280 142.25514280 142.25514280 142.25514280 142.25514280 142.25514280 142.25514280 142.25514280 142.25514280 142.25514280 142.25514280 142.25514280 142.25514280 142.25514280 142.25514280 142.25514280 142.25514280 142.25514280 142.25514280 142.25514280 142.25514280 142.25514280 142.25514280 142.25514280 142.25514280 142.25514280 142.25514280 142.25514280 142.25514280 142.25514280 142.25514280 142.25514280 142.25514280 142.25514280 142.25514280 142.25514280 142.25514280 142.25514280 142.25514280 142.25514280 142.25514280 142.25514280 142.25514280 142.25514280 142.25514280 142.25514280 142.25514280 142.25514280 142.25514280 142.25514280 142.25514280 142.25514280 142.25514280 142.25514280 142.25514280 142.25514280 142.25514280 142.25514280 142.25514280 142.25514280 142.25514280 142.25514280 142.25514280 142.25514280 142.25514280 142.25514280 142.25514280 142.25514280 142.25514280 142.25514280 142.25514280 142.25514280 142.25514280 142.25514280 142.25514280 142.25514280 142.25514280 142.25514280 142.25514280 142.25514280 142.25514280 142.25514280 142.25514280 142.25514280 142.25514280 142.25514280 142.25514280 142.25514280 142.25514280 142.25514280 142.25514280 142.25514280 142.25514280 142.25514280 142.25514280 142.25514280 142.25514280 142.25514280 142.25514280 142.25514280 142.25514280 142.25514280 142.25514280 142.25514280 142.25514280 142.25514280 142.25514280 142.25514280 142.25514280 142.25514280 142.25514280 142.25514280 142.25514280 142.25514280 142.25514280 142.25514280 142.25514280 142.25514280 142.25514280 142.25514280 142.25514280 142.25514280 142.25514280 142.25514280 142.25514280 142.25514280 142.25514280 142.25514280 142.25514280 142.25514280 142.25514280 142.25514280 142.25514280 142.25514280 142.25514280 142.25514280 142.25514280 142.25514280 142.25514280 142.25514280 142.25514280 142.25514280 142.25514280 142.25514280 142.25514280 142.25514280 142.25514280 142.25514280 142.25514280 142.25514280 142.25514280 142.25514280 142.25514280 142.25514280 142.25514280 142.25514280 142.25514280 142.25514280 142.25514280 142.25514280 142.25514280 142.25514280 142.25514280 142.25514280 142.25514280 142.25514280 142.25514280 142.25514280 142.25514280 142.25514280 142.25514280 142.25514280 142.25514280 142.25514280 142.25514280 142.25514280 142.25514280 142.25514280 142.25514280 142.25514280 142.25514280 142.25514280 142.25514280 142.25514280 142.25514280 142.25514280 142.25514280 142.25514280 142.25514280 142.25514280 142.25514280 142.25514280 142.25514280 142.25514280 142.25514280 142.25514280 142.25514280 142.25514280 142.25514280 142.25514280 142.25514280 142.25514280 142.25514280 142.25514280 142.25514280 142.25514280 142.25514280 142.25514280 142.25514280 142.25514280 142.25514280 142.25514280 142.25514280 142.25514280 142.25514280 142.25514280 142.25514280 142.25514280 142.25514280 142.25514280 142.25514280 142.25514280 142.25514280 142.25514280 142.25514280 142.25514280 142.25514280 142.25514280 142.25514280 142.25514280 142.25514280 142.25514280 142.25514280 142.25514280 142.25514280 142.25514280 142.25514280 142.25514280 142.25514280 142.25514280 142.25514280 142.25514280 142.25514280 142.25514280 142.25514280 142.25514280 142.25514280 142.25514280 142.25514280 142.25514280 142.25514280 142.25514280 142.25514280 142.25514280 142.25514280 142.25514280 142.25514280 142.25514280 