# vtk DataFile Version 3.0
VTK - Matlab export
ASCII
DATASET STRUCTURED_POINTS
DIMENSIONS 40 40 1
SPACING 1 1 1
ORIGIN 0 0 0
POINT_DATA 1600
SCALARS lambda-2 float 1
LOOKUP_TABLE default
7.22156776 7.22156776 7.22156776 7.22156776 7.22156776 7.22156776 7.22156776 7.22156776 7.22156776 7.22156776 7.22156776 7.22156776 7.22156776 7.22156776 7.22156776 7.22156776 7.22156776 7.22156776 7.22156776 7.22156776 7.22156776 7.22156776 7.22156776 7.22156776 7.22156776 7.22156776 7.22156776 7.22156776 7.22156776 7.22156776 7.22156776 7.22156776 7.22156776 7.22156776 7.22156776 7.22156776 7.22156776 7.22156776 7.22156776 7.22156776 7.22156776 7.22156776 7.22156776 7.22156776 7.22156776 7.22156776 7.22156776 7.22156776 7.22156776 7.22156776 7.22156776 7.22156776 7.22156776 7.22156776 7.22156776 7.22156776 7.22156776 7.22156776 7.22156776 7.22156776 7.22156776 7.22156776 7.22156776 7.22156776 7.22156776 7.22156776 7.22156776 7.22156776 7.22156776 7.22156776 7.22156776 7.22156776 7.22156776 7.22156776 7.22156776 7.22156776 7.22156776 7.22156776 7.22156776 7.22156776 7.22156776 7.22156776 7.22156776 7.22156776 7.22156776 7.22156776 7.22156776 7.22156776 7.22156776 7.22156776 7.22156776 7.22156776 7.22156776 7.22156776 7.22156776 7.22156776 7.22156776 7.22156776 7.22156776 7.22156776 7.22156776 7.22156776 7.22156776 7.22156776 7.22156776 7.22156776 7.22156776 7.22156776 7.22156776 7.22156776 7.22156776 7.22156776 7.22156776 7.22156776 7.22156776 7.22156776 7.22156776 7.22156776 7.22156776 7.22156776 7.22156776 7.22156776 7.22156776 7.22156776 7.22156776 7.22156776 7.22156776 7.22156776 7.22156776 7.22156776 7.22156776 7.22156776 7.22156776 7.22156776 7.22156776 7.22156776 7.22156776 7.22156776 7.22156776 7.22156776 7.22156776 7.22156776 7.22156776 7.22156776 7.22156776 7.22156776 7.22156776 7.22156776 7.22156776 7.22156776 7.22156776 7.22156776 7.22156776 7.22156776 7.22156776 7.22156776 7.22156776 7.22156776 7.22156776 7.22156776 7.22156776 7.22156776 7.22156776 7.22156776 7.22156776 7.22156776 7.22156776 7.22156776 7.22156776 7.22156776 7.22156776 7.22156776 7.22156776 7.22156776 7.22156776 7.22156776 7.22156776 7.22156776 7.22156776 7.22156776 7.22156776 7.22156776 7.22156776 7.22156776 7.22156776 7.22156776 7.22156776 7.22156776 7.22156776 7.22156776 7.22156776 7.22156776 7.22156776 7.22156776 7.22156776 7.22156776 7.22156776 7.22156776 7.22156776 7.22156776 7.22156776 7.22156776 7.22156776 7.22156776 7.22156776 7.22156776 7.22156776 7.22156776 7.22156776 7.22156776 7.22156776 7.22156776 7.22156776 7.22156776 7.22156776 7.22156776 7.22156776 7.22156776 7.22156776 7.22156776 7.22156776 7.22156776 7.22156776 7.22156776 7.22156776 7.22156776 7.22156776 7.22156776 7.22156776 7.22156776 7.22156776 7.22156776 7.22156776 7.22156776 7.22156776 7.22156776 7.22156776 7.22156776 7.22156776 7.22156776 7.22156776 7.22156776 7.22156776 7.22156776 7.22156776 7.22156776 7.22156776 7.22156776 7.22156776 7.22156776 7.22156776 7.22156776 7.22156776 7.22156776 7.22156776 7.22156776 7.22156776 7.22156776 7.22156776 7.22156776 7.22156776 7.22156776 7.22156776 7.22156776 7.22156776 7.22156776 7.22156776 7.22156776 7.22156776 7.22156776 7.22156776 7.22156776 7.22156776 7.22156776 7.22156776 7.22156776 7.22156776 7.22156776 7.22156776 7.22156776 7.22156776 7.22156776 7.22156776 7.22156776 7.22156776 7.22156776 7.22156776 7.22156776 7.22156776 7.22156776 7.22156776 7.22156776 7.22156776 7.22156776 7.22156776 7.22156776 7.22156776 7.22156776 7.22156776 7.22156776 7.22156776 7.22156776 7.22156776 7.22156776 7.22156776 7.22156776 7.22156776 7.22156776 7.22156776 7.22156776 7.22156776 7.22156776 7.22156776 7.22156776 7.22156776 7.22156776 7.22156776 7.22156776 7.22156776 7.22156776 7.22156776 7.22156776 7.22156776 7.22156776 7.22156776 7.22156776 7.22156776 7.22156776 7.22156776 7.22156776 7.22156776 7.22156776 7.22156776 7.22156776 7.22156776 7.22156776 7.22156776 7.22099003 7.22068146 7.22056923 7.22056923 7.22068146 7.22099003 7.22156776 7.22156776 7.22156776 7.22156776 7.22156776 7.22156776 7.22156776 7.22156776 7.22156776 7.22156776 7.22156776 7.22156776 7.22156776 7.22156776 7.22156776 7.22156776 7.22156776 7.22156776 7.22156776 7.22156776 7.22156776 7.22156776 7.22156776 7.22156776 7.22156776 7.22156776 7.22156776 7.22156776 7.22156776 7.22096341 7.22050877 7.22022957 7.22004037 7.21986935 7.21959584 7.21937635 7.21927106 7.21927106 7.21937635 7.21959584 7.21986935 7.22004037 7.22022957 7.22050877 7.22096341 7.22156776 7.22156776 7.22156776 7.22156776 7.22156776 7.22156776 7.22156776 7.22156776 7.22156776 7.22156776 7.22156776 7.22156776 7.22156776 7.22156776 7.22156776 7.22156776 7.22156776 7.22156776 7.22156776 7.22156776 7.22156776 7.22156776 7.22067912 7.22016587 7.21964072 7.21915692 7.21878215 7.21849916 7.21826968 7.21805808 7.21789507 7.21781064 7.21781064 7.21789507 7.21805808 7.21826968 7.21849916 7.21878215 7.21915692 7.21964072 7.22016587 7.22067912 7.22156776 7.22156776 7.22156776 7.22156776 7.22156776 7.22156776 7.22156776 7.22156776 7.22156776 7.22156776 7.22156776 7.22156776 7.22156776 7.22156776 7.22156776 7.22156776 7.22156776 7.22156776 7.22075502 7.22014245 7.21939924 7.21876121 7.21819257 7.21769441 7.21728972 7.21697446 7.21672984 7.21653924 7.21640523 7.21633654 7.21633654 7.21640523 7.21653924 7.21672984 7.21697446 7.21728972 7.21769441 7.21819257 7.21876121 7.21939924 7.22014245 7.22075502 7.22156776 7.22156776 7.22156776 7.22156776 7.22156776 7.22156776 7.22156776 7.22156776 7.22156776 7.22156776 7.22156776 7.22156776 7.22156776 7.22156776 7.22156776 7.22055058 7.21964294 7.21882409 7.21803923 7.21734344 7.21674394 7.21624136 7.21583853 7.21552826 7.21529599 7.21512780 7.21501697 7.21496184 7.21496184 7.21501697 7.21512780 7.21529599 7.21552826 7.21583853 7.21624136 7.21674394 7.21734344 7.21803923 7.21882409 7.21964294 7.22055058 7.22156776 7.22156776 7.22156776 7.22156776 7.22156776 7.22156776 7.22156776 7.22156776 7.22156776 7.22156776 7.22156776 7.22156776 7.22109121 7.22037516 7.21940714 7.21843544 7.21752411 7.21669328 7.21597069 7.21536660 7.21487993 7.21450380 7.21422490 7.21402598 7.21389053 7.21380633 7.21376599 7.21376599 7.21380633 7.21389053 7.21402598 7.21422490 7.21450380 7.21487993 7.21536660 7.21597069 7.21669328 7.21752411 7.21843544 7.21940714 7.22037516 7.22109121 7.22156776 7.22156776 7.22156776 7.22156776 7.22156776 7.22156776 7.22156776 7.22156776 7.22156776 7.22156776 7.22041807 7.21937141 7.21829881 7.21725415 7.21628668 7.21542940 7.21470480 7.21412036 7.21367076 7.21334189 7.21311373 7.21296384 7.21287115 7.21281883 7.21279550 7.21279550 7.21281883 7.21287115 7.21296384 7.21311373 7.21334189 7.21367076 7.21412036 7.21470480 7.21542940 7.21628668 7.21725415 7.21829881 7.21937141 7.22041807 7.22156776 7.22156776 7.22156776 7.22156776 7.22156776 7.22156776 7.22156776 7.22156776 7.22156776 7.22067769 7.21958083 7.21843012 7.21727468 7.21617124 7.21516948 7.21430498 7.21359768 7.21305106 7.21265436 7.21238666 7.21222120 7.21212964 7.21208587 7.21206883 7.21206398 7.21206398 7.21206883 7.21208587 7.21212964 7.21222120 7.21238666 7.21265436 7.21305106 7.21359768 7.21430498 7.21516948 7.21617124 7.21727468 7.21843012 7.21958083 7.22067769 7.22156776 7.22156776 7.22156776 7.22156776 7.22156776 7.22156776 7.22156776 7.22094841 7.21998565 7.21883266 7.21760685 7.21638799 7.21524221 7.21422238 7.21336468 7.21268666 7.21218750 7.21185083 7.21164932 7.21154984 7.21151838 7.21152412 7.21154225 7.21155566 7.21155566 7.21154225 7.21152412 7.21151838 7.21154984 7.21164932 7.21185083 7.21218750 7.21268666 7.21336468 7.21422238 7.21524221 7.21638799 7.21760685 7.21883266 7.21998565 7.22094841 7.22156776 7.22156776 7.22156776 7.22156776 7.22156776 7.22156776 7.22060188 7.21948498 7.21824385 7.21695171 7.21568445 7.21451020 7.21348327 7.21263951 7.21199413 7.21154236 7.21126277 7.21112252 7.21108307 7.21110560 7.21115534 7.21120449 7.21123391 7.21123391 7.21120449 7.21115534 7.21110560 7.21108307 7.21112252 7.21126277 7.21154236 7.21199413 7.21263951 7.21348327 7.21451020 7.21568445 7.21695171 7.21824385 7.21948498 7.22060188 7.22156776 7.22156776 7.22156776 7.22156776 7.22156776 7.22156776 7.22038090 7.21914985 7.21783856 7.21649765 7.21519753 7.21400610 7.21297795 7.21214831 7.21153047 7.21111659 7.21088149 7.21078822 7.21079431 7.21085749 7.21094015 7.21101240 7.21105371 7.21105371 7.21101240 7.21094015 7.21085749 7.21079431 7.21078822 7.21088149 7.21111659 7.21153047 7.21214831 7.21297795 7.21400610 7.21519753 7.21649765 7.21783856 7.21914985 7.22038090 7.22156776 7.22156776 7.22156776 7.22156776 7.22156776 7.22121836 7.22020281 7.21896751 7.21762945 7.21626502 7.21494873 7.21374937 7.21272179 7.21190080 7.21129860 7.21090571 7.21069492 7.21062712 7.21065776 7.21074274 7.21084300 7.21092756 7.21097521 7.21097521 7.21092756 7.21084300 7.21074274 7.21065776 7.21062712 7.21069492 7.21090571 7.21129860 7.21190080 7.21272179 7.21374937 7.21494873 7.21626502 7.21762945 7.21896751 7.22020281 7.22121836 7.22156776 7.22156776 7.22156776 7.22156776 7.22121836 7.22020281 7.21896751 7.21762945 7.21626502 7.21494873 7.21374937 7.21272179 7.21190080 7.21129860 7.21090571 7.21069492 7.21062712 7.21065776 7.21074274 7.21084300 7.21092756 7.21097521 7.21097521 7.21092756 7.21084300 7.21074274 7.21065776 7.21062712 7.21069492 7.21090571 7.21129860 7.21190080 7.21272179 7.21374937 7.21494873 7.21626502 7.21762945 7.21896751 7.22020281 7.22121836 7.22156776 7.22156776 7.22156776 7.22156776 7.22156776 7.22038090 7.21914985 7.21783856 7.21649765 7.21519753 7.21400610 7.21297795 7.21214831 7.21153047 7.21111659 7.21088149 7.21078822 7.21079431 7.21085749 7.21094015 7.21101240 7.21105371 7.21105371 7.21101240 7.21094015 7.21085749 7.21079431 7.21078822 7.21088149 7.21111659 7.21153047 7.21214831 7.21297795 7.21400610 7.21519753 7.21649765 7.21783856 7.21914985 7.22038090 7.22156776 7.22156776 7.22156776 7.22156776 7.22156776 7.22156776 7.22060188 7.21948498 7.21824385 7.21695171 7.21568445 7.21451020 7.21348327 7.21263951 7.21199413 7.21154236 7.21126277 7.21112252 7.21108307 7.21110560 7.21115534 7.21120449 7.21123391 7.21123391 7.21120449 7.21115534 7.21110560 7.21108307 7.21112252 7.21126277 7.21154236 7.21199413 7.21263951 7.21348327 7.21451020 7.21568445 7.21695171 7.21824385 7.21948498 7.22060188 7.22156776 7.22156776 7.22156776 7.22156776 7.22156776 7.22156776 7.22094841 7.21998565 7.21883266 7.21760685 7.21638799 7.21524221 7.21422238 7.21336468 7.21268666 7.21218750 7.21185083 7.21164932 7.21154984 7.21151838 7.21152412 7.21154225 7.21155566 7.21155566 7.21154225 7.21152412 7.21151838 7.21154984 7.21164932 7.21185083 7.21218750 7.21268666 7.21336468 7.21422238 7.21524221 7.21638799 7.21760685 7.21883266 7.21998565 7.22094841 7.22156776 7.22156776 7.22156776 7.22156776 7.22156776 7.22156776 7.22156776 7.22067769 7.21958083 7.21843012 7.21727468 7.21617124 7.21516948 7.21430498 7.21359768 7.21305106 7.21265436 7.21238666 7.21222120 7.21212964 7.21208587 7.21206883 7.21206398 7.21206398 7.21206883 7.21208587 7.21212964 7.21222120 7.21238666 7.21265436 7.21305106 7.21359768 7.21430498 7.21516948 7.21617124 7.21727468 7.21843012 7.21958083 7.22067769 7.22156776 7.22156776 7.22156776 7.22156776 7.22156776 7.22156776 7.22156776 7.22156776 7.22156776 7.22041807 7.21937141 7.21829881 7.21725415 7.21628668 7.21542940 7.21470480 7.21412036 7.21367076 7.21334189 7.21311373 7.21296384 7.21287115 7.21281883 7.21279550 7.21279550 7.21281883 7.21287115 7.21296384 7.21311373 7.21334189 7.21367076 7.21412036 7.21470480 7.21542940 7.21628668 7.21725415 7.21829881 7.21937141 7.22041807 7.22156776 7.22156776 7.22156776 7.22156776 7.22156776 7.22156776 7.22156776 7.22156776 7.22156776 7.22156776 7.22109121 7.22037516 7.21940714 7.21843544 7.21752411 7.21669328 7.21597069 7.21536660 7.21487993 7.21450380 7.21422490 7.21402598 7.21389053 7.21380633 7.21376599 7.21376599 7.21380633 7.21389053 7.21402598 7.21422490 7.21450380 7.21487993 7.21536660 7.21597069 7.21669328 7.21752411 7.21843544 7.21940714 7.22037516 7.22109121 7.22156776 7.22156776 7.22156776 7.22156776 7.22156776 7.22156776 7.22156776 7.22156776 7.22156776 7.22156776 7.22156776 7.22156776 7.22055058 7.21964294 7.21882409 7.21803923 7.21734344 7.21674394 7.21624136 7.21583853 7.21552826 7.21529599 7.21512780 7.21501697 7.21496184 7.21496184 7.21501697 7.21512780 7.21529599 7.21552826 7.21583853 7.21624136 7.21674394 7.21734344 7.21803923 7.21882409 7.21964294 7.22055058 7.22156776 7.22156776 7.22156776 7.22156776 7.22156776 7.22156776 7.22156776 7.22156776 7.22156776 7.22156776 7.22156776 7.22156776 7.22156776 7.22156776 7.22156776 7.22075502 7.22014245 7.21939924 7.21876121 7.21819257 7.21769441 7.21728972 7.21697446 7.21672984 7.21653924 7.21640523 7.21633654 7.21633654 7.21640523 7.21653924 7.21672984 7.21697446 7.21728972 7.21769441 7.21819257 7.21876121 7.21939924 7.22014245 7.22075502 7.22156776 7.22156776 7.22156776 7.22156776 7.22156776 7.22156776 7.22156776 7.22156776 7.22156776 7.22156776 7.22156776 7.22156776 7.22156776 7.22156776 7.22156776 7.22156776 7.22156776 7.22156776 7.22067912 7.22016587 7.21964072 7.21915692 7.21878215 7.21849916 7.21826968 7.21805808 7.21789507 7.21781064 7.21781064 7.21789507 7.21805808 7.21826968 7.21849916 7.21878215 7.21915692 7.21964072 7.22016587 7.22067912 7.22156776 7.22156776 7.22156776 7.22156776 7.22156776 7.22156776 7.22156776 7.22156776 7.22156776 7.22156776 7.22156776 7.22156776 7.22156776 7.22156776 7.22156776 7.22156776 7.22156776 7.22156776 7.22156776 7.22156776 7.22156776 7.22156776 7.22096341 7.22050877 7.22022957 7.22004037 7.21986935 7.21959584 7.21937635 7.21927106 7.21927106 7.21937635 7.21959584 7.21986935 7.22004037 7.22022957 7.22050877 7.22096341 7.22156776 7.22156776 7.22156776 7.22156776 7.22156776 7.22156776 7.22156776 7.22156776 7.22156776 7.22156776 7.22156776 7.22156776 7.22156776 7.22156776 7.22156776 7.22156776 7.22156776 7.22156776 7.22156776 7.22156776 7.22156776 7.22156776 7.22156776 7.22156776 7.22156776 7.22156776 7.22156776 7.22156776 7.22156776 7.22099003 7.22068146 7.22056923 7.22056923 7.22068146 7.22099003 7.22156776 7.22156776 7.22156776 7.22156776 7.22156776 7.22156776 7.22156776 7.22156776 7.22156776 7.22156776 7.22156776 7.22156776 7.22156776 7.22156776 7.22156776 7.22156776 7.22156776 7.22156776 7.22156776 7.22156776 7.22156776 7.22156776 7.22156776 7.22156776 7.22156776 7.22156776 7.22156776 7.22156776 7.22156776 7.22156776 7.22156776 7.22156776 7.22156776 7.22156776 7.22156776 7.22156776 7.22156776 7.22156776 7.22156776 7.22156776 7.22156776 7.22156776 7.22156776 7.22156776 7.22156776 7.22156776 7.22156776 7.22156776 7.22156776 7.22156776 7.22156776 7.22156776 7.22156776 7.22156776 7.22156776 7.22156776 7.22156776 7.22156776 7.22156776 7.22156776 7.22156776 7.22156776 7.22156776 7.22156776 7.22156776 7.22156776 7.22156776 7.22156776 7.22156776 7.22156776 7.22156776 7.22156776 7.22156776 7.22156776 7.22156776 7.22156776 7.22156776 7.22156776 7.22156776 7.22156776 7.22156776 7.22156776 7.22156776 7.22156776 7.22156776 7.22156776 7.22156776 7.22156776 7.22156776 7.22156776 7.22156776 7.22156776 7.22156776 7.22156776 7.22156776 7.22156776 7.22156776 7.22156776 7.22156776 7.22156776 7.22156776 7.22156776 7.22156776 7.22156776 7.22156776 7.22156776 7.22156776 7.22156776 7.22156776 7.22156776 7.22156776 7.22156776 7.22156776 7.22156776 7.22156776 7.22156776 7.22156776 7.22156776 7.22156776 7.22156776 7.22156776 7.22156776 7.22156776 7.22156776 7.22156776 7.22156776 7.22156776 7.22156776 7.22156776 7.22156776 7.22156776 7.22156776 7.22156776 7.22156776 7.22156776 7.22156776 7.22156776 7.22156776 7.22156776 7.22156776 7.22156776 7.22156776 7.22156776 7.22156776 7.22156776 7.22156776 7.22156776 7.22156776 7.22156776 7.22156776 7.22156776 7.22156776 7.22156776 7.22156776 7.22156776 7.22156776 7.22156776 7.22156776 7.22156776 7.22156776 7.22156776 7.22156776 7.22156776 7.22156776 7.22156776 7.22156776 7.22156776 7.22156776 7.22156776 7.22156776 7.22156776 7.22156776 7.22156776 7.22156776 7.22156776 7.22156776 7.22156776 7.22156776 7.22156776 7.22156776 7.22156776 7.22156776 7.22156776 7.22156776 7.22156776 7.22156776 7.22156776 7.22156776 7.22156776 7.22156776 7.22156776 7.22156776 7.22156776 7.22156776 7.22156776 7.22156776 7.22156776 7.22156776 7.22156776 7.22156776 7.22156776 7.22156776 7.22156776 7.22156776 7.22156776 7.22156776 7.22156776 7.22156776 7.22156776 7.22156776 7.22156776 7.22156776 7.22156776 7.22156776 7.22156776 7.22156776 7.22156776 7.22156776 7.22156776 7.22156776 7.22156776 7.22156776 7.22156776 7.22156776 7.22156776 7.22156776 7.22156776 7.22156776 7.22156776 7.22156776 7.22156776 7.22156776 7.22156776 7.22156776 7.22156776 7.22156776 7.22156776 7.22156776 7.22156776 7.22156776 7.22156776 7.22156776 7.22156776 7.22156776 7.22156776 7.22156776 7.22156776 7.22156776 7.22156776 7.22156776 7.22156776 7.22156776 7.22156776 7.22156776 7.22156776 7.22156776 7.22156776 7.22156776 7.22156776 7.22156776 7.22156776 7.22156776 7.22156776 7.22156776 7.22156776 7.22156776 7.22156776 7.22156776 7.22156776 7.22156776 7.22156776 7.22156776 7.22156776 7.22156776 7.22156776 7.22156776 7.22156776 7.22156776 7.22156776 7.22156776 7.22156776 7.22156776 7.22156776 7.22156776 7.22156776 7.22156776 7.22156776 7.22156776 7.22156776 7.22156776 7.22156776 7.22156776 7.22156776 7.22156776 7.22156776 7.22156776 7.22156776 7.22156776 7.22156776 7.22156776 7.22156776 7.22156776 7.22156776 7.22156776 7.22156776 7.22156776 7.22156776 7.22156776 7.22156776 7.22156776 7.22156776 7.22156776 7.22156776 7.22156776 7.22156776 7.22156776 7.22156776 7.22156776 7.22156776 7.22156776 7.22156776 7.22156776 7.22156776 7.22156776 7.22156776 7.22156776 7.22156776 7.22156776 7.22156776 7.22156776 7.22156776 7.22156776 7.22156776 7.22156776 7.22156776 7.22156776 7.22156776 