# vtk DataFile Version 3.0
VTK - Matlab export
ASCII
DATASET STRUCTURED_POINTS
DIMENSIONS 40 40 1
SPACING 1 1 1
ORIGIN 0 0 0
POINT_DATA 1600
SCALARS Temperature float 1
LOOKUP_TABLE default
300.00000000 300.00000000 300.00000000 300.00000000 300.00000000 300.00000000 300.00000000 300.00000000 300.00000000 300.00000000 300.00000000 300.00000000 300.00000000 300.00000000 300.00000000 300.00000000 300.00000000 300.00000000 300.00000000 300.00000000 300.00000000 300.00000000 300.00000000 300.00000000 300.00000000 300.00000000 300.00000000 300.00000000 300.00000000 300.00000000 300.00000000 300.00000000 300.00000000 300.00000000 300.00000000 300.00000000 300.00000000 300.00000000 300.00000000 300.00000000 300.00000000 300.00000000 300.00000000 300.00000000 300.00000000 300.00000000 300.00000000 300.00000000 300.00000000 300.00000000 300.00000000 300.00000000 300.00000000 300.00000000 300.00000000 300.00000000 300.00000000 300.00000000 300.00000000 300.00000000 300.00000000 300.00000000 300.00000000 300.00000000 300.00000000 300.00000000 300.00000000 300.00000000 300.00000000 300.00000000 300.00000000 300.00000000 300.00000000 300.00000000 300.00000000 300.00000000 300.00000000 300.00000000 300.00000000 300.00000000 300.00000000 300.00000000 300.00000000 300.00000000 300.00000000 300.00000000 300.00000000 300.00000000 300.00000000 300.00000000 300.00000000 300.00000000 300.00000000 300.00000000 300.00000000 300.00000000 300.00000000 300.00000000 300.00000000 300.00000000 300.00000000 300.00000000 300.00000000 300.00000000 300.00000000 300.00000000 300.00000000 300.00000000 300.00000000 300.00000000 300.00000000 300.00000000 300.00000000 300.00000000 300.00000000 300.00000000 300.00000000 300.00000000 300.00000000 300.00000000 300.00000000 300.00000000 300.00000000 300.00000000 300.00000000 300.00000000 300.00000000 300.00000000 300.00000000 300.00000000 300.00000000 300.00000000 300.00000000 300.00000000 300.00000000 300.00000000 300.00000000 300.00000000 300.00000000 300.00000000 300.00000000 300.00000000 300.00000000 300.00000000 300.00000000 300.00000000 300.00000000 300.00000000 300.00000000 300.00000000 300.00000000 300.00000000 300.00000000 300.00000000 300.00000000 300.00000000 300.00000000 300.00000000 300.00000000 300.00000000 300.00000000 300.00000000 300.00000000 300.00000000 300.00000000 300.00000000 300.00000000 300.00000000 300.00000000 300.00000000 300.00000000 300.00000000 300.00000000 300.00000000 300.00000000 300.00000000 300.00000000 300.00000000 300.00000000 300.00000000 300.00000000 300.00000000 300.00000000 300.00000000 300.00000000 300.00000000 300.00000000 300.00000000 300.00000000 300.00000000 300.00000000 300.00000000 300.00000000 300.00000000 300.00000000 300.00000000 300.00000000 300.00000000 300.00000000 300.00000000 300.00000000 300.00000000 300.00000000 300.00000000 300.00000000 300.00000000 300.00000000 300.00000000 300.00000000 300.00000000 300.00000000 300.00000000 300.00000000 300.00000000 300.00000000 300.00000000 300.00000000 300.00000000 300.00000000 300.00000000 300.00000000 300.00000000 300.00000000 300.00000000 300.00000000 300.00000000 300.00000000 300.00000000 300.00000000 300.00000000 300.00000000 300.00000000 300.00000000 300.00000000 300.00000000 300.00000000 300.00000000 300.00000000 300.00000000 300.00000000 300.00000000 300.00000000 300.00000000 300.00000000 300.00000000 300.00000000 300.00000000 300.00000000 300.00000000 300.00000000 300.00000000 300.00000000 300.00000000 300.00000000 300.00000000 300.00000000 300.00000000 300.00000000 300.00000000 300.00000000 300.00000000 300.00000000 300.00000000 300.00000000 300.00000000 300.00000000 300.00000000 300.00000000 300.00000000 300.00000000 300.00000000 300.00000000 300.00000000 300.00000000 300.00000000 300.00000000 300.00000000 300.00000000 300.00000000 300.00000000 300.00000000 300.00000000 300.00000000 300.00000000 300.00000000 300.00000000 300.00000000 300.00000000 300.00000000 300.00000000 300.00000000 300.00000000 300.00000000 300.00000000 300.00000000 300.00000000 300.00000000 300.00000000 300.00000000 300.00000000 300.00000000 300.00000000 300.00000000 300.00000000 300.00000000 300.00000000 300.00000000 300.00000000 300.00000000 300.00000000 300.00000000 300.00000000 300.00000000 300.00000000 300.00000000 300.00000000 300.00000000 300.00000000 300.00000000 300.00000000 300.00000000 300.00000000 300.00000000 300.00000000 300.00000000 300.00000000 300.00000000 300.00000000 300.00000000 300.00000000 300.00000000 300.00000000 300.00000000 300.00000000 300.00000000 300.00000000 300.00000000 322.49053876 334.61916671 339.06734558 339.06734558 334.61916671 322.49053876 300.00000000 300.00000000 300.00000000 300.00000000 300.00000000 300.00000000 300.00000000 300.00000000 300.00000000 300.00000000 300.00000000 300.00000000 300.00000000 300.00000000 300.00000000 300.00000000 300.00000000 300.00000000 300.00000000 300.00000000 300.00000000 300.00000000 300.00000000 300.00000000 300.00000000 300.00000000 300.00000000 300.00000000 300.00000000 322.82154684 340.22723958 351.09007419 358.58937513 365.45281234 376.34741083 385.13567654 389.37958780 389.37958780 385.13567654 376.34741083 365.45281234 358.58937513 351.09007419 340.22723958 322.82154684 300.00000000 300.00000000 300.00000000 300.00000000 300.00000000 300.00000000 300.00000000 300.00000000 300.00000000 300.00000000 300.00000000 300.00000000 300.00000000 300.00000000 300.00000000 300.00000000 300.00000000 300.00000000 300.00000000 300.00000000 300.00000000 300.00000000 332.98632944 352.26781929 372.24923093 390.89658168 405.56410828 416.84149336 426.14019963 434.77542194 441.46417318 444.94808188 444.94808188 441.46417318 434.77542194 426.14019963 416.84149336 405.56410828 390.89658168 372.24923093 352.26781929 332.98632944 300.00000000 300.00000000 300.00000000 300.00000000 300.00000000 300.00000000 300.00000000 300.00000000 300.00000000 300.00000000 300.00000000 300.00000000 300.00000000 300.00000000 300.00000000 300.00000000 300.00000000 300.00000000 329.75657422 352.30242710 379.86576885 403.72377371 425.24761227 444.39428782 460.24003800 472.86419275 482.89281529 490.85493777 496.52558831 499.45755057 499.45755057 496.52558831 490.85493777 482.89281529 472.86419275 460.24003800 444.39428782 425.24761227 403.72377371 379.86576885 352.30242710 329.75657422 300.00000000 300.00000000 300.00000000 300.00000000 300.00000000 300.00000000 300.00000000 300.00000000 300.00000000 300.00000000 300.00000000 300.00000000 300.00000000 300.00000000 300.00000000 336.99566621 370.04283938 399.86116368 428.54711082 454.15091525 476.50045768 495.61622632 511.35739277 523.89711373 533.64243799 540.94833772 545.89390304 548.39675215 548.39675215 545.89390304 540.94833772 533.64243799 523.89711373 511.35739277 495.61622632 476.50045768 454.15091525 428.54711082 399.86116368 370.04283938 336.99566621 300.00000000 300.00000000 300.00000000 300.00000000 300.00000000 300.00000000 300.00000000 300.00000000 300.00000000 300.00000000 300.00000000 300.00000000 317.33058903 343.26367817 378.18665032 413.02935335 445.52843688 475.13232533 501.03569443 523.05059724 541.31250676 556.04797385 567.60901604 576.41462228 582.82119719 587.03281719 589.12734396 589.12734396 587.03281719 582.82119719 576.41462228 567.60901604 556.04797385 541.31250676 523.05059724 501.03569443 475.13232533 445.52843688 413.02935335 378.18665032 343.26367817 317.33058903 300.00000000 300.00000000 300.00000000 300.00000000 300.00000000 300.00000000 300.00000000 300.00000000 300.00000000 300.00000000 341.74407353 379.39177623 417.47865846 454.05739290 487.53373107 517.04643800 542.15150133 562.87939735 579.56978782 592.69218868 602.76100365 610.26603780 615.60420410 619.04257897 620.72986546 620.72986546 619.04257897 615.60420410 610.26603780 602.76100365 592.69218868 579.56978782 562.87939735 542.15150133 517.04643800 487.53373107 454.05739290 417.47865846 379.39177623 341.74407353 300.00000000 300.00000000 300.00000000 300.00000000 300.00000000 300.00000000 300.00000000 300.00000000 300.00000000 332.43964725 372.03189410 412.88125149 453.03990019 490.54683287 523.96296413 552.53709272 576.10493616 594.96267565 609.67767659 620.91136448 629.30529203 635.41358750 639.66550416 642.35615785 643.66139584 643.66139584 642.35615785 639.66550416 635.41358750 629.30529203 620.91136448 609.67767659 594.96267565 576.10493616 552.53709272 523.96296413 490.54683287 453.03990019 412.88125149 372.03189410 332.43964725 300.00000000 300.00000000 300.00000000 300.00000000 300.00000000 300.00000000 300.00000000 322.69898894 357.68749901 398.92885009 441.75211734 483.11415023 520.83087685 553.54355156 580.69918519 602.40543568 619.21793233 631.91254168 641.29984477 648.10962168 652.93541809 656.21917863 658.26072790 659.23999556 659.23999556 658.26072790 656.21917863 652.93541809 648.10962168 641.29984477 631.91254168 619.21793233 602.40543568 580.69918519 553.54355156 520.83087685 483.11415023 441.75211734 398.92885009 357.68749901 322.69898894 300.00000000 300.00000000 300.00000000 300.00000000 300.00000000 300.00000000 335.40905081 375.88897872 419.90806684 464.37047839 506.41994989 543.93099141 575.68624167 601.34889737 621.27206575 636.23177509 647.16951833 655.00141463 660.51042014 664.30632366 666.82812681 668.36733326 669.09711874 669.09711874 668.36733326 666.82812681 664.30632366 660.51042014 655.00141463 647.16951833 636.23177509 621.27206575 601.34889737 575.68624167 543.93099141 506.41994989 464.37047839 419.90806684 375.88897872 335.40905081 300.00000000 300.00000000 300.00000000 300.00000000 300.00000000 300.00000000 343.50290431 388.01615844 434.22212287 479.82848127 522.22429651 559.40641504 590.30185285 614.75401265 633.30220749 646.88075094 656.54329152 663.27093064 667.87366127 670.96367583 672.97062298 674.17426511 674.73864153 674.73864153 674.17426511 672.97062298 670.96367583 667.87366127 663.27093064 656.54329152 646.88075094 633.30220749 614.75401265 590.30185285 559.40641504 522.22429651 479.82848127 434.22212287 388.01615844 343.50290431 300.00000000 300.00000000 300.00000000 300.00000000 300.00000000 312.85170369 350.04578741 394.60626078 441.56697489 487.67316926 530.18935008 567.14254161 597.53791260 621.31864530 639.12390167 651.97016397 660.96703635 667.12590775 671.26727430 674.00161007 675.75141766 676.78863520 677.27134826 677.27134826 676.78863520 675.75141766 674.00161007 671.26727430 667.12590775 660.96703635 651.97016397 639.12390167 621.31864530 597.53791260 567.14254161 530.18935008 487.67316926 441.56697489 394.60626078 350.04578741 312.85170369 300.00000000 300.00000000 300.00000000 300.00000000 312.85170369 350.04578741 394.60626078 441.56697489 487.67316926 530.18935008 567.14254161 597.53791260 621.31864530 639.12390167 651.97016397 660.96703635 667.12590775 671.26727430 674.00161007 675.75141766 676.78863520 677.27134826 677.27134826 676.78863520 675.75141766 674.00161007 671.26727430 667.12590775 660.96703635 651.97016397 639.12390167 621.31864530 597.53791260 567.14254161 530.18935008 487.67316926 441.56697489 394.60626078 350.04578741 312.85170369 300.00000000 300.00000000 300.00000000 300.00000000 300.00000000 343.50290431 388.01615844 434.22212287 479.82848127 522.22429651 559.40641504 590.30185285 614.75401265 633.30220749 646.88075094 656.54329152 663.27093064 667.87366127 670.96367583 672.97062298 674.17426511 674.73864153 674.73864153 674.17426511 672.97062298 670.96367583 667.87366127 663.27093064 656.54329152 646.88075094 633.30220749 614.75401265 590.30185285 559.40641504 522.22429651 479.82848127 434.22212287 388.01615844 343.50290431 300.00000000 300.00000000 300.00000000 300.00000000 300.00000000 300.00000000 335.40905081 375.88897872 419.90806684 464.37047839 506.41994989 543.93099141 575.68624167 601.34889737 621.27206575 636.23177509 647.16951833 655.00141463 660.51042014 664.30632366 666.82812681 668.36733326 669.09711874 669.09711874 668.36733326 666.82812681 664.30632366 660.51042014 655.00141463 647.16951833 636.23177509 621.27206575 601.34889737 575.68624167 543.93099141 506.41994989 464.37047839 419.90806684 375.88897872 335.40905081 300.00000000 300.00000000 300.00000000 300.00000000 300.00000000 300.00000000 322.69898894 357.68749901 398.92885009 441.75211734 483.11415023 520.83087685 553.54355156 580.69918519 602.40543568 619.21793233 631.91254168 641.29984477 648.10962168 652.93541809 656.21917863 658.26072790 659.23999556 659.23999556 658.26072790 656.21917863 652.93541809 648.10962168 641.29984477 631.91254168 619.21793233 602.40543568 580.69918519 553.54355156 520.83087685 483.11415023 441.75211734 398.92885009 357.68749901 322.69898894 300.00000000 300.00000000 300.00000000 300.00000000 300.00000000 300.00000000 300.00000000 332.43964725 372.03189410 412.88125149 453.03990019 490.54683287 523.96296413 552.53709272 576.10493616 594.96267565 609.67767659 620.91136448 629.30529203 635.41358750 639.66550416 642.35615785 643.66139584 643.66139584 642.35615785 639.66550416 635.41358750 629.30529203 620.91136448 609.67767659 594.96267565 576.10493616 552.53709272 523.96296413 490.54683287 453.03990019 412.88125149 372.03189410 332.43964725 300.00000000 300.00000000 300.00000000 300.00000000 300.00000000 300.00000000 300.00000000 300.00000000 300.00000000 341.74407353 379.39177623 417.47865846 454.05739290 487.53373107 517.04643800 542.15150133 562.87939735 579.56978782 592.69218868 602.76100365 610.26603780 615.60420410 619.04257897 620.72986546 620.72986546 619.04257897 615.60420410 610.26603780 602.76100365 592.69218868 579.56978782 562.87939735 542.15150133 517.04643800 487.53373107 454.05739290 417.47865846 379.39177623 341.74407353 300.00000000 300.00000000 300.00000000 300.00000000 300.00000000 300.00000000 300.00000000 300.00000000 300.00000000 300.00000000 317.33058903 343.26367817 378.18665032 413.02935335 445.52843688 475.13232533 501.03569443 523.05059724 541.31250676 556.04797385 567.60901604 576.41462228 582.82119719 587.03281719 589.12734396 589.12734396 587.03281719 582.82119719 576.41462228 567.60901604 556.04797385 541.31250676 523.05059724 501.03569443 475.13232533 445.52843688 413.02935335 378.18665032 343.26367817 317.33058903 300.00000000 300.00000000 300.00000000 300.00000000 300.00000000 300.00000000 300.00000000 300.00000000 300.00000000 300.00000000 300.00000000 300.00000000 336.99566621 370.04283938 399.86116368 428.54711082 454.15091525 476.50045768 495.61622632 511.35739277 523.89711373 533.64243799 540.94833772 545.89390304 548.39675215 548.39675215 545.89390304 540.94833772 533.64243799 523.89711373 511.35739277 495.61622632 476.50045768 454.15091525 428.54711082 399.86116368 370.04283938 336.99566621 300.00000000 300.00000000 300.00000000 300.00000000 300.00000000 300.00000000 300.00000000 300.00000000 300.00000000 300.00000000 300.00000000 300.00000000 300.00000000 300.00000000 300.00000000 329.75657422 352.30242710 379.86576885 403.72377371 425.24761227 444.39428782 460.24003800 472.86419275 482.89281529 490.85493777 496.52558831 499.45755057 499.45755057 496.52558831 490.85493777 482.89281529 472.86419275 460.24003800 444.39428782 425.24761227 403.72377371 379.86576885 352.30242710 329.75657422 300.00000000 300.00000000 300.00000000 300.00000000 300.00000000 300.00000000 300.00000000 300.00000000 300.00000000 300.00000000 300.00000000 300.00000000 300.00000000 300.00000000 300.00000000 300.00000000 300.00000000 300.00000000 332.98632944 352.26781929 372.24923093 390.89658168 405.56410828 416.84149336 426.14019963 434.77542194 441.46417318 444.94808188 444.94808188 441.46417318 434.77542194 426.14019963 416.84149336 405.56410828 390.89658168 372.24923093 352.26781929 332.98632944 300.00000000 300.00000000 300.00000000 300.00000000 300.00000000 300.00000000 300.00000000 300.00000000 300.00000000 300.00000000 300.00000000 300.00000000 300.00000000 300.00000000 300.00000000 300.00000000 300.00000000 300.00000000 300.00000000 300.00000000 300.00000000 300.00000000 322.82154684 340.22723958 351.09007419 358.58937513 365.45281234 376.34741083 385.13567654 389.37958780 389.37958780 385.13567654 376.34741083 365.45281234 358.58937513 351.09007419 340.22723958 322.82154684 300.00000000 300.00000000 300.00000000 300.00000000 300.00000000 300.00000000 300.00000000 300.00000000 300.00000000 300.00000000 300.00000000 300.00000000 300.00000000 300.00000000 300.00000000 300.00000000 300.00000000 300.00000000 300.00000000 300.00000000 300.00000000 300.00000000 300.00000000 300.00000000 300.00000000 300.00000000 300.00000000 300.00000000 300.00000000 322.49053876 334.61916671 339.06734558 339.06734558 334.61916671 322.49053876 300.00000000 300.00000000 300.00000000 300.00000000 300.00000000 300.00000000 300.00000000 300.00000000 300.00000000 300.00000000 300.00000000 300.00000000 300.00000000 300.00000000 300.00000000 300.00000000 300.00000000 300.00000000 300.00000000 300.00000000 300.00000000 300.00000000 300.00000000 300.00000000 300.00000000 300.00000000 300.00000000 300.00000000 300.00000000 300.00000000 300.00000000 300.00000000 300.00000000 300.00000000 300.00000000 300.00000000 300.00000000 300.00000000 300.00000000 300.00000000 300.00000000 300.00000000 300.00000000 300.00000000 300.00000000 300.00000000 300.00000000 300.00000000 300.00000000 300.00000000 300.00000000 300.00000000 300.00000000 300.00000000 300.00000000 300.00000000 300.00000000 300.00000000 300.00000000 300.00000000 300.00000000 300.00000000 300.00000000 300.00000000 300.00000000 300.00000000 300.00000000 300.00000000 300.00000000 300.00000000 300.00000000 300.00000000 300.00000000 300.00000000 300.00000000 300.00000000 300.00000000 300.00000000 300.00000000 300.00000000 300.00000000 300.00000000 300.00000000 300.00000000 300.00000000 300.00000000 300.00000000 300.00000000 300.00000000 300.00000000 300.00000000 300.00000000 300.00000000 300.00000000 300.00000000 300.00000000 300.00000000 300.00000000 300.00000000 300.00000000 300.00000000 300.00000000 300.00000000 300.00000000 300.00000000 300.00000000 300.00000000 300.00000000 300.00000000 300.00000000 300.00000000 300.00000000 300.00000000 300.00000000 300.00000000 300.00000000 300.00000000 300.00000000 300.00000000 300.00000000 300.00000000 300.00000000 300.00000000 300.00000000 300.00000000 300.00000000 300.00000000 300.00000000 300.00000000 300.00000000 300.00000000 300.00000000 300.00000000 300.00000000 300.00000000 300.00000000 300.00000000 300.00000000 300.00000000 300.00000000 300.00000000 300.00000000 300.00000000 300.00000000 300.00000000 300.00000000 300.00000000 300.00000000 300.00000000 300.00000000 300.00000000 300.00000000 300.00000000 300.00000000 300.00000000 300.00000000 300.00000000 300.00000000 300.00000000 300.00000000 300.00000000 300.00000000 300.00000000 300.00000000 300.00000000 300.00000000 300.00000000 300.00000000 300.00000000 300.00000000 300.00000000 300.00000000 300.00000000 300.00000000 300.00000000 300.00000000 300.00000000 300.00000000 300.00000000 300.00000000 300.00000000 300.00000000 300.00000000 300.00000000 300.00000000 300.00000000 300.00000000 300.00000000 300.00000000 300.00000000 300.00000000 300.00000000 300.00000000 300.00000000 300.00000000 300.00000000 300.00000000 300.00000000 300.00000000 300.00000000 300.00000000 300.00000000 300.00000000 300.00000000 300.00000000 300.00000000 300.00000000 300.00000000 300.00000000 300.00000000 300.00000000 300.00000000 300.00000000 300.00000000 300.00000000 300.00000000 300.00000000 300.00000000 300.00000000 300.00000000 300.00000000 300.00000000 300.00000000 300.00000000 300.00000000 300.00000000 300.00000000 300.00000000 300.00000000 300.00000000 300.00000000 300.00000000 300.00000000 300.00000000 300.00000000 300.00000000 300.00000000 300.00000000 300.00000000 300.00000000 300.00000000 300.00000000 300.00000000 300.00000000 300.00000000 300.00000000 300.00000000 300.00000000 300.00000000 300.00000000 300.00000000 300.00000000 300.00000000 300.00000000 300.00000000 300.00000000 300.00000000 300.00000000 300.00000000 300.00000000 300.00000000 300.00000000 300.00000000 300.00000000 300.00000000 300.00000000 300.00000000 300.00000000 300.00000000 300.00000000 300.00000000 300.00000000 300.00000000 300.00000000 300.00000000 300.00000000 300.00000000 300.00000000 300.00000000 300.00000000 300.00000000 300.00000000 300.00000000 300.00000000 300.00000000 300.00000000 300.00000000 300.00000000 300.00000000 300.00000000 300.00000000 300.00000000 300.00000000 300.00000000 300.00000000 300.00000000 300.00000000 300.00000000 300.00000000 300.00000000 300.00000000 300.00000000 300.00000000 300.00000000 300.00000000 300.00000000 300.00000000 300.00000000 300.00000000 300.00000000 300.00000000 300.00000000 300.00000000 300.00000000 300.00000000 300.00000000 300.00000000 300.00000000 300.00000000 300.00000000 300.00000000 300.00000000 300.00000000 300.00000000 300.00000000 300.00000000 300.00000000 300.00000000 300.00000000 300.00000000 300.00000000 300.00000000 300.00000000 300.00000000 300.00000000 300.00000000 300.00000000 