# vtk DataFile Version 3.0
VTK - Matlab export
ASCII
DATASET STRUCTURED_POINTS
DIMENSIONS 40 40 1
SPACING 1 1 1
ORIGIN 0 0 0
POINT_DATA 1600
SCALARS Proofstrength float 1
LOOKUP_TABLE default
142.25514280 142.25514280 142.25514280 142.25514280 142.25514280 142.25514280 142.25514280 142.25514280 142.25514280 142.25514280 142.25514280 142.25514280 142.25514280 142.25514280 142.25514280 142.25514280 142.25514280 142.25514280 142.25514280 142.25514280 142.25514280 142.25514280 142.25514280 142.25514280 142.25514280 142.25514280 142.25514280 142.25514280 142.25514280 142.25514280 142.25514280 142.25514280 142.25514280 142.25514280 142.25514280 142.25514280 142.25514280 142.25514280 142.25514280 142.25514280 142.25514280 142.25514280 142.25514280 142.25514280 142.25514280 142.25514280 142.25514280 142.25514280 142.25514280 142.25514280 142.25514280 142.25514280 142.25514280 142.25514280 142.25514280 142.25514280 142.25514280 142.25514280 142.25514280 142.25514280 142.25514280 142.25514280 142.25514280 142.25514280 142.25514280 142.25514280 142.25514280 142.25514280 142.25514280 142.25514280 142.25514280 142.25514280 142.25514280 142.25514280 142.25514280 142.25514280 142.25514280 142.25514280 142.25514280 142.25514280 142.25514280 142.25514280 142.25514280 142.25514280 142.25514280 142.25514280 142.25514280 142.25514280 142.25514280 142.25514280 142.25514280 142.25514280 142.25514280 142.25514280 142.25514280 142.25514280 142.25514280 142.25514280 142.25514280 142.25514280 142.25514280 142.25514280 142.25514280 142.25514280 142.25514280 142.25514280 142.25514280 142.25514280 142.25514280 142.25514280 142.25514280 142.25514280 142.25514280 142.25514280 142.25514280 142.25514280 142.25514280 142.25514280 142.25514280 142.25514280 142.25514280 142.25514280 142.25514280 142.25514280 142.25514280 142.25514280 142.25514280 142.25514280 142.25514280 142.25514280 142.25514280 142.25514280 142.25514280 142.25514280 142.25514280 142.25514280 142.25514280 142.25514280 142.25514280 142.25514280 142.25514280 142.25514280 142.25514280 142.25514280 142.25514280 142.25514280 142.25514280 142.25514280 142.25514280 142.25514280 142.25514280 142.25514280 142.25514280 142.25514280 142.25514280 142.25514280 142.25514280 142.25514280 142.25514280 142.25514280 142.25514280 142.25514280 142.25514280 142.25514280 142.25514280 142.25514280 142.25514280 142.25514280 142.25514280 142.25514280 142.25514280 142.25514280 142.25514280 142.25514280 142.25514280 142.25514280 142.25514280 142.25514280 142.25514280 142.25514280 142.25514280 142.25514280 142.25514280 142.25514280 142.25514280 142.25514280 142.25514280 142.25514280 142.25514280 142.25514280 142.25514280 142.25514280 142.25514280 142.25514280 142.25514280 142.25514280 142.25514280 142.25514280 142.25514280 142.25514280 142.25514280 142.25514280 142.25514280 142.25514280 142.25514280 142.25514280 142.25514280 142.25514280 142.25514280 142.25514280 142.25514280 142.25514280 142.25514280 142.25514280 142.25514280 142.25514280 142.25514280 142.25514280 142.25514280 142.25514280 142.25514280 142.25514280 142.25514280 142.25514280 142.25514280 142.25514280 142.25514280 142.25514280 142.25514280 142.25514280 142.25514280 142.25514280 142.25514280 142.25514280 142.25514280 142.25514280 142.25514280 142.25514280 142.25514280 142.25514280 142.25514280 142.25514280 142.25514280 142.25514280 142.25514280 142.25514280 142.25514280 142.25514280 142.25514280 142.25514280 142.25514280 142.25514280 142.25514280 142.25514280 142.25514280 142.25514280 142.25514280 142.25514280 142.25514280 142.25514280 142.25514280 142.25514280 142.25514280 142.25514280 142.25514280 142.25514280 142.25514280 142.25514280 142.25514280 142.25514280 142.25514280 142.25514280 142.25514280 142.25514280 142.25514280 142.25514280 142.25514280 142.25514280 142.25514280 142.25514280 142.25514280 142.25514280 142.25514280 142.25514280 142.25514280 142.25514280 142.25514280 142.25514280 142.25514280 142.25514280 142.25514280 142.25514280 142.25514280 142.25514280 142.25514280 142.25514280 142.25514280 142.25514280 142.25514280 142.25514280 142.25514280 142.25514280 142.25514280 142.25514280 142.25514280 142.25514280 142.25514280 142.25514280 142.25514280 142.25514280 142.25514280 142.25514280 142.25514280 142.25514280 142.25514280 142.25514280 142.25514280 142.25514280 142.25514280 142.25514280 142.25514280 142.25514280 142.25514280 142.25514280 142.25514280 142.25514280 142.25514280 142.25514280 142.25514280 142.25514280 142.25514280 142.25514280 142.25514280 142.25514280 142.25514280 142.25514280 142.25514280 142.25646706 142.25718012 142.25744083 142.25744083 142.25718012 142.25646706 142.25514280 142.25514280 142.25514280 142.25514280 142.25514280 142.25514280 142.25514280 142.25514280 142.25514280 142.25514280 142.25514280 142.25514280 142.25514280 142.25514280 142.25514280 142.25514280 142.25514280 142.25514280 142.25514280 142.25514280 142.25514280 142.25514280 142.25514280 142.25514280 142.25514280 142.25514280 142.25514280 142.25514280 142.25514280 142.25654131 142.25758533 142.25821479 142.25863149 142.25900745 142.25962642 142.26012796 142.26036926 142.26036926 142.26012796 142.25962642 142.25900745 142.25863149 142.25821479 142.25758533 142.25654131 142.25514280 142.25514280 142.25514280 142.25514280 142.25514280 142.25514280 142.25514280 142.25514280 142.25514280 142.25514280 142.25514280 142.25514280 142.25514280 142.25514280 142.25514280 142.25514280 142.25514280 142.25514280 142.25514280 142.25514280 142.25514280 142.25514280 142.25722201 142.25839808 142.25958190 142.26065534 142.26146557 142.26206012 142.26253668 142.26298489 142.26333567 142.26351832 142.26351832 142.26333567 142.26298489 142.26253668 142.26206012 142.26146557 142.26065534 142.25958190 142.25839808 142.25722201 142.25514280 142.25514280 142.25514280 142.25514280 142.25514280 142.25514280 142.25514280 142.25514280 142.25514280 142.25514280 142.25514280 142.25514280 142.25514280 142.25514280 142.25514280 142.25514280 142.25514280 142.25514280 142.25707953 142.25850360 142.26019864 142.26160679 142.26282055 142.26385028 142.26465491 142.26525673 142.26571117 142.26606543 142.26631738 142.26644740 142.26644740 142.26631738 142.26606543 142.26571117 142.26525673 142.26465491 142.26385028 142.26282055 142.26160679 142.26019864 142.25850360 142.25707953 142.25514280 142.25514280 142.25514280 142.25514280 142.25514280 142.25514280 142.25514280 142.25514280 142.25514280 142.25514280 142.25514280 142.25514280 142.25514280 142.25514280 142.25514280 142.25759553 142.25972917 142.26158283 142.26328886 142.26472605 142.26589529 142.26681749 142.26750791 142.26800245 142.26835001 142.26859264 142.26875059 142.26882893 142.26882893 142.26875059 142.26859264 142.26835001 142.26800245 142.26750791 142.26681749 142.26589529 142.26472605 142.26328886 142.26158283 142.25972917 142.25759553 142.25514280 142.25514280 142.25514280 142.25514280 142.25514280 142.25514280 142.25514280 142.25514280 142.25514280 142.25514280 142.25514280 142.25514280 142.25632603 142.25806868 142.26036407 142.26257883 142.26454685 142.26622697 142.26757420 142.26859517 142.26932673 142.26981681 142.27012192 142.27029973 142.27039845 142.27045015 142.27047224 142.27047224 142.27045015 142.27039845 142.27029973 142.27012192 142.26981681 142.26932673 142.26859517 142.26757420 142.26622697 142.26454685 142.26257883 142.26036407 142.25806868 142.25632603 142.25514280 142.25514280 142.25514280 142.25514280 142.25514280 142.25514280 142.25514280 142.25514280 142.25514280 142.25514280 142.25800956 142.26054346 142.26302897 142.26531139 142.26726724 142.26883507 142.26999707 142.27078185 142.27124989 142.27147599 142.27153764 142.27150564 142.27143698 142.27137157 142.27133336 142.27133336 142.27137157 142.27143698 142.27150564 142.27153764 142.27147599 142.27124989 142.27078185 142.26999707 142.26883507 142.26726724 142.26531139 142.26302897 142.26054346 142.25800956 142.25514280 142.25514280 142.25514280 142.25514280 142.25514280 142.25514280 142.25514280 142.25514280 142.25514280 142.25740256 142.26012136 142.26286210 142.26545829 142.26774713 142.26961144 142.27099687 142.27190849 142.27240138 142.27256280 142.27249256 142.27228759 142.27203146 142.27178894 142.27160494 142.27150666 142.27150666 142.27160494 142.27178894 142.27203146 142.27228759 142.27249256 142.27256280 142.27240138 142.27190849 142.27099687 142.26961144 142.26774713 142.26545829 142.26286210 142.26012136 142.25740256 142.25514280 142.25514280 142.25514280 142.25514280 142.25514280 142.25514280 142.25514280 142.25674025 142.25918111 142.26201341 142.26487721 142.26752402 142.26976893 142.27149566 142.27266287 142.27329876 142.27348533 142.27333609 142.27297337 142.27251069 142.27204200 142.27163757 142.27134485 142.27119206 142.27119206 142.27134485 142.27163757 142.27204200 142.27251069 142.27297337 142.27333609 142.27348533 142.27329876 142.27266287 142.27149566 142.26976893 142.26752402 142.26487721 142.26201341 142.25918111 142.25674025 142.25514280 142.25514280 142.25514280 142.25514280 142.25514280 142.25514280 142.25764181 142.26047354 142.26349961 142.26646581 142.26913118 142.27130887 142.27288818 142.27384234 142.27422106 142.27413042 142.27370658 142.27309032 142.27240795 142.27176078 142.27122224 142.27084049 142.27064338 142.27064338 142.27084049 142.27122224 142.27176078 142.27240795 142.27309032 142.27370658 142.27413042 142.27422106 142.27384234 142.27288818 142.27130887 142.26913118 142.26646581 142.26349961 142.26047354 142.25764181 142.25514280 142.25514280 142.25514280 142.25514280 142.25514280 142.25514280 142.25821950 142.26133966 142.26451903 142.26755653 142.27022393 142.27233821 142.27379544 142.27458129 142.27476221 142.27446243 142.27383468 142.27303274 142.27219149 142.27141670 142.27078324 142.27033899 142.27011094 142.27011094 142.27033899 142.27078324 142.27141670 142.27219149 142.27303274 142.27383468 142.27446243 142.27476221 142.27458129 142.27379544 142.27233821 142.27022393 142.26755653 142.26451903 142.26133966 142.25821950 142.25514280 142.25514280 142.25514280 142.25514280 142.25514280 142.25605516 142.25868715 142.26181188 142.26504388 142.26811167 142.27077549 142.27285175 142.27424018 142.27493340 142.27500704 142.27459507 142.27385895 142.27295916 142.27203482 142.27119378 142.27051136 142.27003504 142.26979116 142.26979116 142.27003504 142.27051136 142.27119378 142.27203482 142.27295916 142.27385895 142.27459507 142.27500704 142.27493340 142.27424018 142.27285175 142.27077549 142.26811167 142.26504388 142.26181188 142.25868715 142.25605516 142.25514280 142.25514280 142.25514280 142.25514280 142.25605516 142.25868715 142.26181188 142.26504388 142.26811167 142.27077549 142.27285175 142.27424018 142.27493340 142.27500704 142.27459507 142.27385895 142.27295916 142.27203482 142.27119378 142.27051136 142.27003504 142.26979116 142.26979116 142.27003504 142.27051136 142.27119378 142.27203482 142.27295916 142.27385895 142.27459507 142.27500704 142.27493340 142.27424018 142.27285175 142.27077549 142.26811167 142.26504388 142.26181188 142.25868715 142.25605516 142.25514280 142.25514280 142.25514280 142.25514280 142.25514280 142.25821950 142.26133966 142.26451903 142.26755653 142.27022393 142.27233821 142.27379544 142.27458129 142.27476221 142.27446243 142.27383468 142.27303274 142.27219149 142.27141670 142.27078324 142.27033899 142.27011094 142.27011094 142.27033899 142.27078324 142.27141670 142.27219149 142.27303274 142.27383468 142.27446243 142.27476221 142.27458129 142.27379544 142.27233821 142.27022393 142.26755653 142.26451903 142.26133966 142.25821950 142.25514280 142.25514280 142.25514280 142.25514280 142.25514280 142.25514280 142.25764181 142.26047354 142.26349961 142.26646581 142.26913118 142.27130887 142.27288818 142.27384234 142.27422106 142.27413042 142.27370658 142.27309032 142.27240795 142.27176078 142.27122224 142.27084049 142.27064338 142.27064338 142.27084049 142.27122224 142.27176078 142.27240795 142.27309032 142.27370658 142.27413042 142.27422106 142.27384234 142.27288818 142.27130887 142.26913118 142.26646581 142.26349961 142.26047354 142.25764181 142.25514280 142.25514280 142.25514280 142.25514280 142.25514280 142.25514280 142.25674025 142.25918111 142.26201341 142.26487721 142.26752402 142.26976893 142.27149566 142.27266287 142.27329876 142.27348533 142.27333609 142.27297337 142.27251069 142.27204200 142.27163757 142.27134485 142.27119206 142.27119206 142.27134485 142.27163757 142.27204200 142.27251069 142.27297337 142.27333609 142.27348533 142.27329876 142.27266287 142.27149566 142.26976893 142.26752402 142.26487721 142.26201341 142.25918111 142.25674025 142.25514280 142.25514280 142.25514280 142.25514280 142.25514280 142.25514280 142.25514280 142.25740256 142.26012136 142.26286210 142.26545829 142.26774713 142.26961144 142.27099687 142.27190849 142.27240138 142.27256280 142.27249256 142.27228759 142.27203146 142.27178894 142.27160494 142.27150666 142.27150666 142.27160494 142.27178894 142.27203146 142.27228759 142.27249256 142.27256280 142.27240138 142.27190849 142.27099687 142.26961144 142.26774713 142.26545829 142.26286210 142.26012136 142.25740256 142.25514280 142.25514280 142.25514280 142.25514280 142.25514280 142.25514280 142.25514280 142.25514280 142.25514280 142.25800956 142.26054346 142.26302897 142.26531139 142.26726724 142.26883507 142.26999707 142.27078185 142.27124989 142.27147599 142.27153764 142.27150564 142.27143698 142.27137157 142.27133336 142.27133336 142.27137157 142.27143698 142.27150564 142.27153764 142.27147599 142.27124989 142.27078185 142.26999707 142.26883507 142.26726724 142.26531139 142.26302897 142.26054346 142.25800956 142.25514280 142.25514280 142.25514280 142.25514280 142.25514280 142.25514280 142.25514280 142.25514280 142.25514280 142.25514280 142.25632603 142.25806868 142.26036407 142.26257883 142.26454685 142.26622697 142.26757420 142.26859517 142.26932673 142.26981681 142.27012192 142.27029973 142.27039845 142.27045015 142.27047224 142.27047224 142.27045015 142.27039845 142.27029973 142.27012192 142.26981681 142.26932673 142.26859517 142.26757420 142.26622697 142.26454685 142.26257883 142.26036407 142.25806868 142.25632603 142.25514280 142.25514280 142.25514280 142.25514280 142.25514280 142.25514280 142.25514280 142.25514280 142.25514280 142.25514280 142.25514280 142.25514280 142.25759553 142.25972917 142.26158283 142.26328886 142.26472605 142.26589529 142.26681749 142.26750791 142.26800245 142.26835001 142.26859264 142.26875059 142.26882893 142.26882893 142.26875059 142.26859264 142.26835001 142.26800245 142.26750791 142.26681749 142.26589529 142.26472605 142.26328886 142.26158283 142.25972917 142.25759553 142.25514280 142.25514280 142.25514280 142.25514280 142.25514280 142.25514280 142.25514280 142.25514280 142.25514280 142.25514280 142.25514280 142.25514280 142.25514280 142.25514280 142.25514280 142.25707953 142.25850360 142.26019864 142.26160679 142.26282055 142.26385028 142.26465491 142.26525673 142.26571117 142.26606543 142.26631738 142.26644740 142.26644740 142.26631738 142.26606543 142.26571117 142.26525673 142.26465491 142.26385028 142.26282055 142.26160679 142.26019864 142.25850360 142.25707953 142.25514280 142.25514280 142.25514280 142.25514280 142.25514280 142.25514280 142.25514280 142.25514280 142.25514280 142.25514280 142.25514280 142.25514280 142.25514280 142.25514280 142.25514280 142.25514280 142.25514280 142.25514280 142.25722201 142.25839808 142.25958190 142.26065534 142.26146557 142.26206012 142.26253668 142.26298489 142.26333567 142.26351832 142.26351832 142.26333567 142.26298489 142.26253668 142.26206012 142.26146557 142.26065534 142.25958190 142.25839808 142.25722201 142.25514280 142.25514280 142.25514280 142.25514280 142.25514280 142.25514280 142.25514280 142.25514280 142.25514280 142.25514280 142.25514280 142.25514280 142.25514280 142.25514280 142.25514280 142.25514280 142.25514280 142.25514280 142.25514280 142.25514280 142.25514280 142.25514280 142.25654131 142.25758533 142.25821479 142.25863149 142.25900745 142.25962642 142.26012796 142.26036926 142.26036926 142.26012796 142.25962642 142.25900745 142.25863149 142.25821479 142.25758533 142.25654131 142.25514280 142.25514280 142.25514280 142.25514280 142.25514280 142.25514280 142.25514280 142.25514280 142.25514280 142.25514280 142.25514280 142.25514280 142.25514280 142.25514280 142.25514280 142.25514280 142.25514280 142.25514280 142.25514280 142.25514280 142.25514280 142.25514280 142.25514280 142.25514280 142.25514280 142.25514280 142.25514280 142.25514280 142.25514280 142.25646706 142.25718012 142.25744083 142.25744083 142.25718012 142.25646706 142.25514280 142.25514280 142.25514280 142.25514280 142.25514280 142.25514280 142.25514280 142.25514280 142.25514280 142.25514280 142.25514280 142.25514280 142.25514280 142.25514280 142.25514280 142.25514280 142.25514280 142.25514280 142.25514280 142.25514280 142.25514280 142.25514280 142.25514280 142.25514280 142.25514280 142.25514280 142.25514280 142.25514280 142.25514280 142.25514280 142.25514280 142.25514280 142.25514280 142.25514280 142.25514280 142.25514280 142.25514280 142.25514280 142.25514280 142.25514280 142.25514280 142.25514280 142.25514280 142.25514280 142.25514280 142.25514280 142.25514280 142.25514280 142.25514280 142.25514280 142.25514280 142.25514280 142.25514280 142.25514280 142.25514280 142.25514280 142.25514280 142.25514280 142.25514280 142.25514280 142.25514280 142.25514280 142.25514280 142.25514280 142.25514280 142.25514280 142.25514280 142.25514280 142.25514280 142.25514280 142.25514280 142.25514280 142.25514280 142.25514280 142.25514280 142.25514280 142.25514280 142.25514280 142.25514280 142.25514280 142.25514280 142.25514280 142.25514280 142.25514280 142.25514280 142.25514280 142.25514280 142.25514280 142.25514280 142.25514280 142.25514280 142.25514280 142.25514280 142.25514280 142.25514280 142.25514280 142.25514280 142.25514280 142.25514280 142.25514280 142.25514280 142.25514280 142.25514280 142.25514280 142.25514280 142.25514280 142.25514280 142.25514280 142.25514280 142.25514280 142.25514280 142.25514280 142.25514280 142.25514280 142.25514280 142.25514280 142.25514280 142.25514280 142.25514280 142.25514280 142.25514280 142.25514280 142.25514280 142.25514280 142.25514280 142.25514280 142.25514280 142.25514280 142.25514280 142.25514280 142.25514280 142.25514280 142.25514280 142.25514280 142.25514280 142.25514280 142.25514280 142.25514280 142.25514280 142.25514280 142.25514280 142.25514280 142.25514280 142.25514280 142.25514280 142.25514280 142.25514280 142.25514280 142.25514280 142.25514280 142.25514280 142.25514280 142.25514280 142.25514280 142.25514280 142.25514280 142.25514280 142.25514280 142.25514280 142.25514280 142.25514280 142.25514280 142.25514280 142.25514280 142.25514280 142.25514280 142.25514280 142.25514280 142.25514280 142.25514280 142.25514280 142.25514280 142.25514280 142.25514280 142.25514280 142.25514280 142.25514280 142.25514280 142.25514280 142.25514280 142.25514280 142.25514280 142.25514280 142.25514280 142.25514280 142.25514280 142.25514280 142.25514280 142.25514280 142.25514280 142.25514280 142.25514280 142.25514280 142.25514280 142.25514280 142.25514280 142.25514280 142.25514280 142.25514280 142.25514280 142.25514280 142.25514280 142.25514280 142.25514280 142.25514280 142.25514280 142.25514280 142.25514280 142.25514280 142.25514280 142.25514280 142.25514280 142.25514280 142.25514280 142.25514280 142.25514280 142.25514280 142.25514280 142.25514280 142.25514280 142.25514280 142.25514280 142.25514280 142.25514280 142.25514280 142.25514280 142.25514280 142.25514280 142.25514280 142.25514280 142.25514280 142.25514280 142.25514280 142.25514280 142.25514280 142.25514280 142.25514280 142.25514280 142.25514280 142.25514280 142.25514280 142.25514280 142.25514280 142.25514280 142.25514280 142.25514280 142.25514280 142.25514280 142.25514280 142.25514280 142.25514280 142.25514280 142.25514280 142.25514280 142.25514280 142.25514280 142.25514280 142.25514280 142.25514280 142.25514280 142.25514280 142.25514280 142.25514280 142.25514280 142.25514280 142.25514280 142.25514280 142.25514280 142.25514280 142.25514280 142.25514280 142.25514280 142.25514280 142.25514280 142.25514280 142.25514280 142.25514280 142.25514280 142.25514280 142.25514280 142.25514280 142.25514280 142.25514280 142.25514280 142.25514280 142.25514280 142.25514280 142.25514280 142.25514280 142.25514280 142.25514280 142.25514280 142.25514280 142.25514280 142.25514280 142.25514280 142.25514280 142.25514280 142.25514280 142.25514280 142.25514280 142.25514280 142.25514280 142.25514280 142.25514280 142.25514280 142.25514280 142.25514280 142.25514280 142.25514280 142.25514280 142.25514280 142.25514280 142.25514280 142.25514280 142.25514280 142.25514280 142.25514280 142.25514280 142.25514280 142.25514280 142.25514280 142.25514280 142.25514280 142.25514280 142.25514280 142.25514280 142.25514280 142.25514280 142.25514280 142.25514280 142.25514280 142.25514280 142.25514280 142.25514280 142.25514280 142.25514280 