# vtk DataFile Version 3.0
VTK - Matlab export
ASCII
DATASET STRUCTURED_POINTS
DIMENSIONS 40 40 1
SPACING 1 1 1
ORIGIN 0 0 0
POINT_DATA 1600
SCALARS lambda-2 float 1
LOOKUP_TABLE default
7.22156776 7.22156776 7.22156776 7.22156776 7.22156776 7.22156776 7.22156776 7.22156776 7.22156776 7.22156776 7.22156776 7.22156776 7.22156776 7.22156776 7.22156776 7.22156776 7.22156776 7.22156776 7.22156776 7.22156776 7.22156776 7.22156776 7.22156776 7.22156776 7.22156776 7.22156776 7.22156776 7.22156776 7.22156776 7.22156776 7.22156776 7.22156776 7.22156776 7.22156776 7.22156776 7.22156776 7.22156776 7.22156776 7.22156776 7.22156776 7.22156776 7.22156776 7.22156776 7.22156776 7.22156776 7.22156776 7.22156776 7.22156776 7.22156776 7.22156776 7.22156776 7.22156776 7.22156776 7.22156776 7.22156776 7.22156776 7.22156776 7.22156776 7.22156776 7.22156776 7.22156776 7.22156776 7.22156776 7.22156776 7.22156776 7.22156776 7.22156776 7.22156776 7.22156776 7.22156776 7.22156776 7.22156776 7.22156776 7.22156776 7.22156776 7.22156776 7.22156776 7.22156776 7.22156776 7.22156776 7.22156776 7.22156776 7.22156776 7.22156776 7.22156776 7.22156776 7.22156776 7.22156776 7.22156776 7.22156776 7.22156776 7.22156776 7.22156776 7.22156776 7.22156776 7.22156776 7.22156776 7.22156776 7.22156776 7.22156776 7.22156776 7.22156776 7.22156776 7.22156776 7.22156776 7.22156776 7.22156776 7.22156776 7.22156776 7.22156776 7.22156776 7.22156776 7.22156776 7.22156776 7.22156776 7.22156776 7.22156776 7.22156776 7.22156776 7.22156776 7.22156776 7.22156776 7.22156776 7.22156776 7.22156776 7.22156776 7.22156776 7.22156776 7.22156776 7.22156776 7.22156776 7.22156776 7.22156776 7.22156776 7.22156776 7.22156776 7.22156776 7.22156776 7.22156776 7.22156776 7.22156776 7.22156776 7.22156776 7.22156776 7.22156776 7.22156776 7.22156776 7.22156776 7.22156776 7.22156776 7.22156776 7.22156776 7.22156776 7.22156776 7.22156776 7.22156776 7.22156776 7.22156776 7.22156776 7.22156776 7.22156776 7.22156776 7.22156776 7.22156776 7.22156776 7.22156776 7.22156776 7.22156776 7.22156776 7.22156776 7.22156776 7.22156776 7.22156776 7.22156776 7.22156776 7.22156776 7.22156776 7.22156776 7.22156776 7.22156776 7.22156776 7.22156776 7.22156776 7.22156776 7.22156776 7.22156776 7.22156776 7.22156776 7.22156776 7.22156776 7.22156776 7.22156776 7.22156776 7.22156776 7.22156776 7.22156776 7.22156776 7.22156776 7.22156776 7.22156776 7.22156776 7.22156776 7.22156776 7.22156776 7.22156776 7.22156776 7.22156776 7.22156776 7.22156776 7.22156776 7.22156776 7.22156776 7.22156776 7.22156776 7.22156776 7.22156776 7.22156776 7.22156776 7.22156776 7.22156776 7.22156776 7.22156776 7.22156776 7.22156776 7.22156776 7.22156776 7.22156776 7.22156776 7.22156776 7.22156776 7.22156776 7.22156776 7.22156776 7.22156776 7.22156776 7.22156776 7.22156776 7.22156776 7.22156776 7.22156776 7.22156776 7.22156776 7.22156776 7.22156776 7.22156776 7.22156776 7.22156776 7.22156776 7.22156776 7.22156776 7.22156776 7.22156776 7.22156776 7.22156776 7.22156776 7.22156776 7.22156776 7.22156776 7.22156776 7.22156776 7.22156776 7.22156776 7.22156776 7.22156776 7.22156776 7.22156776 7.22156776 7.22156776 7.22156776 7.22156776 7.22156776 7.22156776 7.22156776 7.22156776 7.22156776 7.22156776 7.22156776 7.22156776 7.22156776 7.22156776 7.22156776 7.22156776 7.22156776 7.22156776 7.22156776 7.22156776 7.22156776 7.22156776 7.22156776 7.22156776 7.22156776 7.22156776 7.22156776 7.22156776 7.22156776 7.22156776 7.22156776 7.22156776 7.22156776 7.22156776 7.22156776 7.22156776 7.22156776 7.22156776 7.22156776 7.22156776 7.22156776 7.22156776 7.22156776 7.22156776 7.22156776 7.22156776 7.22156776 7.22156776 7.22156776 7.22156776 7.22156776 7.22156776 7.22156776 7.22156776 7.22156776 7.22156776 7.22156776 7.22156776 7.22156776 7.22156776 7.22156776 7.22156776 7.22156776 7.22156776 7.22156776 7.22156776 7.22156776 7.22156776 7.22156776 7.22156776 7.22156776 7.21934567 7.21810984 7.21764696 7.21764696 7.21810984 7.21934567 7.22156776 7.22156776 7.22156776 7.22156776 7.22156776 7.22156776 7.22156776 7.22156776 7.22156776 7.22156776 7.22156776 7.22156776 7.22156776 7.22156776 7.22156776 7.22156776 7.22156776 7.22156776 7.22156776 7.22156776 7.22156776 7.22156776 7.22156776 7.22156776 7.22156776 7.22156776 7.22156776 7.22156776 7.22156776 7.21922186 7.21747872 7.21647232 7.21585108 7.21529162 7.21428058 7.21343049 7.21301431 7.21301431 7.21343049 7.21428058 7.21529162 7.21585108 7.21647232 7.21747872 7.21922186 7.22156776 7.22156776 7.22156776 7.22156776 7.22156776 7.22156776 7.22156776 7.22156776 7.22156776 7.22156776 7.22156776 7.22156776 7.22156776 7.22156776 7.22156776 7.22156776 7.22156776 7.22156776 7.22156776 7.22156776 7.22156776 7.22156776 7.21809134 7.21618575 7.21431979 7.21268671 7.21154676 7.21079188 7.21021113 7.20961428 7.20911339 7.20884493 7.20884493 7.20911339 7.20961428 7.21021113 7.21079188 7.21154676 7.21268671 7.21431979 7.21618575 7.21809134 7.22156776 7.22156776 7.22156776 7.22156776 7.22156776 7.22156776 7.22156776 7.22156776 7.22156776 7.22156776 7.22156776 7.22156776 7.22156776 7.22156776 7.22156776 7.22156776 7.22156776 7.22156776 7.21831426 7.21602133 7.21337355 7.21133927 7.20973480 7.20850044 7.20766885 7.20715703 7.20682277 7.20655094 7.20633529 7.20621664 7.20621664 7.20633529 7.20655094 7.20682277 7.20715703 7.20766885 7.20850044 7.20973480 7.21133927 7.21337355 7.21602133 7.21831426 7.22156776 7.22156776 7.22156776 7.22156776 7.22156776 7.22156776 7.22156776 7.22156776 7.22156776 7.22156776 7.22156776 7.22156776 7.22156776 7.22156776 7.22156776 7.21744636 7.21403761 7.21133837 7.20910409 7.20749636 7.20643707 7.20580932 7.20552127 7.20546005 7.20550465 7.20556335 7.20560010 7.20561547 7.20561547 7.20560010 7.20556335 7.20550465 7.20546005 7.20552127 7.20580932 7.20643707 7.20749636 7.20910409 7.21133837 7.21403761 7.21744636 7.22156776 7.22156776 7.22156776 7.22156776 7.22156776 7.22156776 7.22156776 7.22156776 7.22156776 7.22156776 7.22156776 7.22156776 7.21947972 7.21655535 7.21294924 7.20984554 7.20752739 7.20597331 7.20512887 7.20484539 7.20494773 7.20528239 7.20571803 7.20614827 7.20650097 7.20674166 7.20686181 7.20686181 7.20674166 7.20650097 7.20614827 7.20571803 7.20528239 7.20494773 7.20484539 7.20512887 7.20597331 7.20752739 7.20984554 7.21294924 7.21655535 7.21947972 7.22156776 7.22156776 7.22156776 7.22156776 7.22156776 7.22156776 7.22156776 7.22156776 7.22156776 7.22156776 7.21652277 7.21244571 7.20898666 7.20643630 7.20489628 7.20426718 7.20435275 7.20491419 7.20572823 7.20662073 7.20746893 7.20819342 7.20875017 7.20912187 7.20930661 7.20930661 7.20912187 7.20875017 7.20819342 7.20746893 7.20662073 7.20572823 7.20491419 7.20435275 7.20426718 7.20489628 7.20643630 7.20898666 7.21244571 7.21652277 7.22156776 7.22156776 7.22156776 7.22156776 7.22156776 7.22156776 7.22156776 7.22156776 7.22156776 7.21743669 7.21283553 7.20882747 7.20584005 7.20408594 7.20351969 7.20390001 7.20490412 7.20622014 7.20760336 7.20889274 7.20999879 7.21088182 7.21153242 7.21195667 7.21216516 7.21216516 7.21195667 7.21153242 7.21088182 7.20999879 7.20889274 7.20760336 7.20622014 7.20490412 7.20390001 7.20351969 7.20408594 7.20584005 7.20882747 7.21283553 7.21743669 7.22156776 7.22156776 7.22156776 7.22156776 7.22156776 7.22156776 7.22156776 7.21852637 7.21414721 7.20964100 7.20596097 7.20362680 7.20276775 7.20318714 7.20449675 7.20627009 7.20815226 7.20990637 7.21140841 7.21261596 7.21353352 7.21418585 7.21460140 7.21480299 7.21480299 7.21460140 7.21418585 7.21353352 7.21261596 7.21140841 7.20990637 7.20815226 7.20627009 7.20449675 7.20318714 7.20276775 7.20362680 7.20596097 7.20964100 7.21414721 7.21852637 7.22156776 7.22156776 7.22156776 7.22156776 7.22156776 7.22156776 7.21679919 7.21180185 7.20726740 7.20394830 7.20227141 7.20223788 7.20350096 7.20554586 7.20787327 7.21011374 7.21205754 7.21362695 7.21482720 7.21570207 7.21630417 7.21667900 7.21685838 7.21685838 7.21667900 7.21630417 7.21570207 7.21482720 7.21362695 7.21205754 7.21011374 7.20787327 7.20554586 7.20350096 7.20223788 7.20227141 7.20394830 7.20726740 7.21180185 7.21679919 7.22156776 7.22156776 7.22156776 7.22156776 7.22156776 7.22156776 7.21570057 7.21027342 7.20573390 7.20272135 7.20156638 7.20215399 7.20401825 7.20655428 7.20922035 7.21164943 7.21366248 7.21522212 7.21637084 7.21718071 7.21772289 7.21805356 7.21820983 7.21820983 7.21805356 7.21772289 7.21718071 7.21637084 7.21522212 7.21366248 7.21164943 7.20922035 7.20655428 7.20401825 7.20215399 7.20156638 7.20272135 7.20573390 7.21027342 7.21570057 7.22156776 7.22156776 7.22156776 7.22156776 7.22156776 7.21978710 7.21479684 7.20944703 7.20497527 7.20215048 7.20128468 7.20220331 7.20437671 7.20715428 7.20997587 7.21248014 7.21450760 7.21604399 7.21715185 7.21791775 7.21842191 7.21872543 7.21886771 7.21886771 7.21872543 7.21842191 7.21791775 7.21715185 7.21604399 7.21450760 7.21248014 7.20997587 7.20715428 7.20437671 7.20220331 7.20128468 7.20215048 7.20497527 7.20944703 7.21479684 7.21978710 7.22156776 7.22156776 7.22156776 7.22156776 7.21978710 7.21479684 7.20944703 7.20497527 7.20215048 7.20128468 7.20220331 7.20437671 7.20715428 7.20997587 7.21248014 7.21450760 7.21604399 7.21715185 7.21791775 7.21842191 7.21872543 7.21886771 7.21886771 7.21872543 7.21842191 7.21791775 7.21715185 7.21604399 7.21450760 7.21248014 7.20997587 7.20715428 7.20437671 7.20220331 7.20128468 7.20215048 7.20497527 7.20944703 7.21479684 7.21978710 7.22156776 7.22156776 7.22156776 7.22156776 7.22156776 7.21570057 7.21027342 7.20573390 7.20272135 7.20156638 7.20215399 7.20401825 7.20655428 7.20922035 7.21164943 7.21366248 7.21522212 7.21637084 7.21718071 7.21772289 7.21805356 7.21820983 7.21820983 7.21805356 7.21772289 7.21718071 7.21637084 7.21522212 7.21366248 7.21164943 7.20922035 7.20655428 7.20401825 7.20215399 7.20156638 7.20272135 7.20573390 7.21027342 7.21570057 7.22156776 7.22156776 7.22156776 7.22156776 7.22156776 7.22156776 7.21679919 7.21180185 7.20726740 7.20394830 7.20227141 7.20223788 7.20350096 7.20554586 7.20787327 7.21011374 7.21205754 7.21362695 7.21482720 7.21570207 7.21630417 7.21667900 7.21685838 7.21685838 7.21667900 7.21630417 7.21570207 7.21482720 7.21362695 7.21205754 7.21011374 7.20787327 7.20554586 7.20350096 7.20223788 7.20227141 7.20394830 7.20726740 7.21180185 7.21679919 7.22156776 7.22156776 7.22156776 7.22156776 7.22156776 7.22156776 7.21852637 7.21414721 7.20964100 7.20596097 7.20362680 7.20276775 7.20318714 7.20449675 7.20627009 7.20815226 7.20990637 7.21140841 7.21261596 7.21353352 7.21418585 7.21460140 7.21480299 7.21480299 7.21460140 7.21418585 7.21353352 7.21261596 7.21140841 7.20990637 7.20815226 7.20627009 7.20449675 7.20318714 7.20276775 7.20362680 7.20596097 7.20964100 7.21414721 7.21852637 7.22156776 7.22156776 7.22156776 7.22156776 7.22156776 7.22156776 7.22156776 7.21743669 7.21283553 7.20882747 7.20584005 7.20408594 7.20351969 7.20390001 7.20490412 7.20622014 7.20760336 7.20889274 7.20999879 7.21088182 7.21153242 7.21195667 7.21216516 7.21216516 7.21195667 7.21153242 7.21088182 7.20999879 7.20889274 7.20760336 7.20622014 7.20490412 7.20390001 7.20351969 7.20408594 7.20584005 7.20882747 7.21283553 7.21743669 7.22156776 7.22156776 7.22156776 7.22156776 7.22156776 7.22156776 7.22156776 7.22156776 7.22156776 7.21652277 7.21244571 7.20898666 7.20643630 7.20489628 7.20426718 7.20435275 7.20491419 7.20572823 7.20662073 7.20746893 7.20819342 7.20875017 7.20912187 7.20930661 7.20930661 7.20912187 7.20875017 7.20819342 7.20746893 7.20662073 7.20572823 7.20491419 7.20435275 7.20426718 7.20489628 7.20643630 7.20898666 7.21244571 7.21652277 7.22156776 7.22156776 7.22156776 7.22156776 7.22156776 7.22156776 7.22156776 7.22156776 7.22156776 7.22156776 7.21947972 7.21655535 7.21294924 7.20984554 7.20752739 7.20597331 7.20512887 7.20484539 7.20494773 7.20528239 7.20571803 7.20614827 7.20650097 7.20674166 7.20686181 7.20686181 7.20674166 7.20650097 7.20614827 7.20571803 7.20528239 7.20494773 7.20484539 7.20512887 7.20597331 7.20752739 7.20984554 7.21294924 7.21655535 7.21947972 7.22156776 7.22156776 7.22156776 7.22156776 7.22156776 7.22156776 7.22156776 7.22156776 7.22156776 7.22156776 7.22156776 7.22156776 7.21744636 7.21403761 7.21133837 7.20910409 7.20749636 7.20643707 7.20580932 7.20552127 7.20546005 7.20550465 7.20556335 7.20560010 7.20561547 7.20561547 7.20560010 7.20556335 7.20550465 7.20546005 7.20552127 7.20580932 7.20643707 7.20749636 7.20910409 7.21133837 7.21403761 7.21744636 7.22156776 7.22156776 7.22156776 7.22156776 7.22156776 7.22156776 7.22156776 7.22156776 7.22156776 7.22156776 7.22156776 7.22156776 7.22156776 7.22156776 7.22156776 7.21831426 7.21602133 7.21337355 7.21133927 7.20973480 7.20850044 7.20766885 7.20715703 7.20682277 7.20655094 7.20633529 7.20621664 7.20621664 7.20633529 7.20655094 7.20682277 7.20715703 7.20766885 7.20850044 7.20973480 7.21133927 7.21337355 7.21602133 7.21831426 7.22156776 7.22156776 7.22156776 7.22156776 7.22156776 7.22156776 7.22156776 7.22156776 7.22156776 7.22156776 7.22156776 7.22156776 7.22156776 7.22156776 7.22156776 7.22156776 7.22156776 7.22156776 7.21809134 7.21618575 7.21431979 7.21268671 7.21154676 7.21079188 7.21021113 7.20961428 7.20911339 7.20884493 7.20884493 7.20911339 7.20961428 7.21021113 7.21079188 7.21154676 7.21268671 7.21431979 7.21618575 7.21809134 7.22156776 7.22156776 7.22156776 7.22156776 7.22156776 7.22156776 7.22156776 7.22156776 7.22156776 7.22156776 7.22156776 7.22156776 7.22156776 7.22156776 7.22156776 7.22156776 7.22156776 7.22156776 7.22156776 7.22156776 7.22156776 7.22156776 7.21922186 7.21747872 7.21647232 7.21585108 7.21529162 7.21428058 7.21343049 7.21301431 7.21301431 7.21343049 7.21428058 7.21529162 7.21585108 7.21647232 7.21747872 7.21922186 7.22156776 7.22156776 7.22156776 7.22156776 7.22156776 7.22156776 7.22156776 7.22156776 7.22156776 7.22156776 7.22156776 7.22156776 7.22156776 7.22156776 7.22156776 7.22156776 7.22156776 7.22156776 7.22156776 7.22156776 7.22156776 7.22156776 7.22156776 7.22156776 7.22156776 7.22156776 7.22156776 7.22156776 7.22156776 7.21934567 7.21810984 7.21764696 7.21764696 7.21810984 7.21934567 7.22156776 7.22156776 7.22156776 7.22156776 7.22156776 7.22156776 7.22156776 7.22156776 7.22156776 7.22156776 7.22156776 7.22156776 7.22156776 7.22156776 7.22156776 7.22156776 7.22156776 7.22156776 7.22156776 7.22156776 7.22156776 7.22156776 7.22156776 7.22156776 7.22156776 7.22156776 7.22156776 7.22156776 7.22156776 7.22156776 7.22156776 7.22156776 7.22156776 7.22156776 7.22156776 7.22156776 7.22156776 7.22156776 7.22156776 7.22156776 7.22156776 7.22156776 7.22156776 7.22156776 7.22156776 7.22156776 7.22156776 7.22156776 7.22156776 7.22156776 7.22156776 7.22156776 7.22156776 7.22156776 7.22156776 7.22156776 7.22156776 7.22156776 7.22156776 7.22156776 7.22156776 7.22156776 7.22156776 7.22156776 7.22156776 7.22156776 7.22156776 7.22156776 7.22156776 7.22156776 7.22156776 7.22156776 7.22156776 7.22156776 7.22156776 7.22156776 7.22156776 7.22156776 7.22156776 7.22156776 7.22156776 7.22156776 7.22156776 7.22156776 7.22156776 7.22156776 7.22156776 7.22156776 7.22156776 7.22156776 7.22156776 7.22156776 7.22156776 7.22156776 7.22156776 7.22156776 7.22156776 7.22156776 7.22156776 7.22156776 7.22156776 7.22156776 7.22156776 7.22156776 7.22156776 7.22156776 7.22156776 7.22156776 7.22156776 7.22156776 7.22156776 7.22156776 7.22156776 7.22156776 7.22156776 7.22156776 7.22156776 7.22156776 7.22156776 7.22156776 7.22156776 7.22156776 7.22156776 7.22156776 7.22156776 7.22156776 7.22156776 7.22156776 7.22156776 7.22156776 7.22156776 7.22156776 7.22156776 7.22156776 7.22156776 7.22156776 7.22156776 7.22156776 7.22156776 7.22156776 7.22156776 7.22156776 7.22156776 7.22156776 7.22156776 7.22156776 7.22156776 7.22156776 7.22156776 7.22156776 7.22156776 7.22156776 7.22156776 7.22156776 7.22156776 7.22156776 7.22156776 7.22156776 7.22156776 7.22156776 7.22156776 7.22156776 7.22156776 7.22156776 7.22156776 7.22156776 7.22156776 7.22156776 7.22156776 7.22156776 7.22156776 7.22156776 7.22156776 7.22156776 7.22156776 7.22156776 7.22156776 7.22156776 7.22156776 7.22156776 7.22156776 7.22156776 7.22156776 7.22156776 7.22156776 7.22156776 7.22156776 7.22156776 7.22156776 7.22156776 7.22156776 7.22156776 7.22156776 7.22156776 7.22156776 7.22156776 7.22156776 7.22156776 7.22156776 7.22156776 7.22156776 7.22156776 7.22156776 7.22156776 7.22156776 7.22156776 7.22156776 7.22156776 7.22156776 7.22156776 7.22156776 7.22156776 7.22156776 7.22156776 7.22156776 7.22156776 7.22156776 7.22156776 7.22156776 7.22156776 7.22156776 7.22156776 7.22156776 7.22156776 7.22156776 7.22156776 7.22156776 7.22156776 7.22156776 7.22156776 7.22156776 7.22156776 7.22156776 7.22156776 7.22156776 7.22156776 7.22156776 7.22156776 7.22156776 7.22156776 7.22156776 7.22156776 7.22156776 7.22156776 7.22156776 7.22156776 7.22156776 7.22156776 7.22156776 7.22156776 7.22156776 7.22156776 7.22156776 7.22156776 7.22156776 7.22156776 7.22156776 7.22156776 7.22156776 7.22156776 7.22156776 7.22156776 7.22156776 7.22156776 7.22156776 7.22156776 7.22156776 7.22156776 7.22156776 7.22156776 7.22156776 7.22156776 7.22156776 7.22156776 7.22156776 7.22156776 7.22156776 7.22156776 7.22156776 7.22156776 7.22156776 7.22156776 7.22156776 7.22156776 7.22156776 7.22156776 7.22156776 7.22156776 7.22156776 7.22156776 7.22156776 7.22156776 7.22156776 7.22156776 7.22156776 7.22156776 7.22156776 7.22156776 7.22156776 7.22156776 7.22156776 7.22156776 7.22156776 7.22156776 7.22156776 7.22156776 7.22156776 7.22156776 7.22156776 7.22156776 7.22156776 7.22156776 7.22156776 7.22156776 7.22156776 7.22156776 7.22156776 7.22156776 7.22156776 7.22156776 7.22156776 7.22156776 7.22156776 7.22156776 7.22156776 7.22156776 7.22156776 7.22156776 7.22156776 7.22156776 7.22156776 7.22156776 7.22156776 7.22156776 7.22156776 7.22156776 7.22156776 