# vtk DataFile Version 3.0
VTK - Matlab export
ASCII
DATASET STRUCTURED_POINTS
DIMENSIONS 40 40 1
SPACING 1 1 1
ORIGIN 0 0 0
POINT_DATA 1600
SCALARS Proofstrength float 1
LOOKUP_TABLE default
142.25514280 142.25514280 142.25514280 142.25514280 142.25514280 142.25514280 142.25514280 142.25514280 142.25514280 142.25514280 142.25514280 142.25514280 142.25514280 142.25514280 142.25514280 142.25514280 142.25514280 142.25514280 142.25514280 142.25514280 142.25514280 142.25514280 142.25514280 142.25514280 142.25514280 142.25514280 142.25514280 142.25514280 142.25514280 142.25514280 142.25514280 142.25514280 142.25514280 142.25514280 142.25514280 142.25514280 142.25514280 142.25514280 142.25514280 142.25514280 142.25514280 142.25514280 142.25514280 142.25514280 142.25514280 142.25514280 142.25514280 142.25514280 142.25514280 142.25514280 142.25514280 142.25514280 142.25514280 142.25514280 142.25514280 142.25514280 142.25514280 142.25514280 142.25514280 142.25514280 142.25514280 142.25514280 142.25514280 142.25514280 142.25514280 142.25514280 142.25514280 142.25514280 142.25514280 142.25514280 142.25514280 142.25514280 142.25514280 142.25514280 142.25514280 142.25514280 142.25514280 142.25514280 142.25514280 142.25514280 142.25514280 142.25514280 142.25514280 142.25514280 142.25514280 142.25514280 142.25514280 142.25514280 142.25514280 142.25514280 142.25514280 142.25514280 142.25514280 142.25514280 142.25514280 142.25514280 142.25514280 142.25514280 142.25514280 142.25514280 142.25514280 142.25514280 142.25514280 142.25514280 142.25514280 142.25514280 142.25514280 142.25514280 142.25514280 142.25514280 142.25514280 142.25514280 142.25514280 142.25514280 142.25514280 142.25514280 142.25514280 142.25514280 142.25514280 142.25514280 142.25514280 142.25514280 142.25514280 142.25514280 142.25514280 142.25514280 142.25514280 142.25514280 142.25514280 142.25514280 142.25514280 142.25514280 142.25514280 142.25514280 142.25514280 142.25514280 142.25514280 142.25514280 142.25514280 142.25514280 142.25514280 142.25514280 142.25514280 142.25514280 142.25514280 142.25514280 142.25514280 142.25514280 142.25514280 142.25514280 142.25514280 142.25514280 142.25514280 142.25514280 142.25514280 142.25514280 142.25514280 142.25514280 142.25514280 142.25514280 142.25514280 142.25514280 142.25514280 142.25514280 142.25514280 142.25514280 142.25514280 142.25514280 142.25514280 142.25514280 142.25514280 142.25514280 142.25514280 142.25514280 142.25514280 142.25514280 142.25514280 142.25514280 142.25514280 142.25514280 142.25514280 142.25514280 142.25514280 142.25514280 142.25514280 142.25514280 142.25514280 142.25514280 142.25514280 142.25514280 142.25514280 142.25514280 142.25514280 142.25514280 142.25514280 142.25514280 142.25514280 142.25514280 142.25514280 142.25514280 142.25514280 142.25514280 142.25514280 142.25514280 142.25514280 142.25514280 142.25514280 142.25514280 142.25514280 142.25514280 142.25514280 142.25514280 142.25514280 142.25514280 142.25514280 142.25514280 142.25514280 142.25514280 142.25514280 142.25514280 142.25514280 142.25514280 142.25514280 142.25514280 142.25514280 142.25514280 142.25514280 142.25514280 142.25514280 142.25514280 142.25514280 142.25514280 142.25514280 142.25514280 142.25514280 142.25514280 142.25514280 142.25514280 142.25514280 142.25514280 142.25514280 142.25514280 142.25514280 142.25514280 142.25514280 142.25514280 142.25514280 142.25514280 142.25514280 142.25514280 142.25514280 142.25514280 142.25514280 142.25514280 142.25514280 142.25514280 142.25514280 142.25514280 142.25514280 142.25514280 142.25514280 142.25514280 142.25514280 142.25514280 142.25514280 142.25514280 142.25514280 142.25514280 142.25514280 142.25514280 142.25514280 142.25514280 142.25514280 142.25514280 142.25514280 142.25514280 142.25514280 142.25514280 142.25514280 142.25514280 142.25514280 142.25514280 142.25514280 142.25514280 142.25514280 142.25514280 142.25514280 142.25514280 142.25514280 142.25514280 142.25514280 142.25514280 142.25514280 142.25514280 142.25514280 142.25514280 142.25514280 142.25514280 142.25514280 142.25514280 142.25514280 142.25514280 142.25514280 142.25514280 142.25514280 142.25514280 142.25514280 142.25514280 142.25514280 142.25514280 142.25514280 142.25514280 142.25514280 142.25514280 142.25514280 142.25514280 142.25514280 142.25514280 142.25514280 142.25514280 142.25514280 142.25514280 142.25514280 142.25514280 142.25514280 142.25514280 142.25514280 142.25514280 142.25514280 142.25514280 142.25514280 142.25514280 142.25514280 142.25514280 142.25514280 142.25514280 142.25514280 142.25691478 142.25787654 142.25823014 142.25823014 142.25787654 142.25691478 142.25514280 142.25514280 142.25514280 142.25514280 142.25514280 142.25514280 142.25514280 142.25514280 142.25514280 142.25514280 142.25514280 142.25514280 142.25514280 142.25514280 142.25514280 142.25514280 142.25514280 142.25514280 142.25514280 142.25514280 142.25514280 142.25514280 142.25514280 142.25514280 142.25514280 142.25514280 142.25514280 142.25514280 142.25514280 142.25701473 142.25840981 142.25924207 142.25978438 142.26027354 142.26109652 142.26176900 142.26209367 142.26209367 142.26176900 142.26109652 142.26027354 142.25978438 142.25924207 142.25840981 142.25701473 142.25514280 142.25514280 142.25514280 142.25514280 142.25514280 142.25514280 142.25514280 142.25514280 142.25514280 142.25514280 142.25514280 142.25514280 142.25514280 142.25514280 142.25514280 142.25514280 142.25514280 142.25514280 142.25514280 142.25514280 142.25514280 142.25514280 142.25792979 142.25949003 142.26104806 142.26244831 142.26348648 142.26423209 142.26482486 142.26539237 142.26584288 142.26607872 142.26607872 142.26584288 142.26539237 142.26482486 142.26423209 142.26348648 142.26244831 142.26104806 142.25949003 142.25792979 142.25514280 142.25514280 142.25514280 142.25514280 142.25514280 142.25514280 142.25514280 142.25514280 142.25514280 142.25514280 142.25514280 142.25514280 142.25514280 142.25514280 142.25514280 142.25514280 142.25514280 142.25514280 142.25775384 142.25964646 142.26187628 142.26368932 142.26521743 142.26648513 142.26744645 142.26814141 142.26865450 142.26905627 142.26934621 142.26949712 142.26949712 142.26934621 142.26905627 142.26865450 142.26814141 142.26744645 142.26648513 142.26521743 142.26368932 142.26187628 142.25964646 142.25775384 142.25514280 142.25514280 142.25514280 142.25514280 142.25514280 142.25514280 142.25514280 142.25514280 142.25514280 142.25514280 142.25514280 142.25514280 142.25514280 142.25514280 142.25514280 142.25846229 142.26130328 142.26370672 142.26585558 142.26759698 142.26895042 142.26996439 142.27067683 142.27114992 142.27145934 142.27166709 142.27180165 142.27186869 142.27186869 142.27180165 142.27166709 142.27145934 142.27114992 142.27067683 142.26996439 142.26895042 142.26759698 142.26585558 142.26370672 142.26130328 142.25846229 142.25514280 142.25514280 142.25514280 142.25514280 142.25514280 142.25514280 142.25514280 142.25514280 142.25514280 142.25514280 142.25514280 142.25514280 142.25677277 142.25913845 142.26219566 142.26505589 142.26748839 142.26945278 142.27091607 142.27192067 142.27254770 142.27288557 142.27302526 142.27305123 142.27302907 142.27299890 142.27298010 142.27298010 142.27299890 142.27302907 142.27305123 142.27302526 142.27288557 142.27254770 142.27192067 142.27091607 142.26945278 142.26748839 142.26505589 142.26219566 142.25913845 142.25677277 142.25514280 142.25514280 142.25514280 142.25514280 142.25514280 142.25514280 142.25514280 142.25514280 142.25514280 142.25514280 142.25909689 142.26250950 142.26573591 142.26854883 142.27079050 142.27241251 142.27343997 142.27396261 142.27410413 142.27399247 142.27374364 142.27345250 142.27318789 142.27299302 142.27289085 142.27289085 142.27299302 142.27318789 142.27345250 142.27374364 142.27399247 142.27410413 142.27396261 142.27343997 142.27241251 142.27079050 142.26854883 142.26573591 142.26250950 142.25909689 142.25514280 142.25514280 142.25514280 142.25514280 142.25514280 142.25514280 142.25514280 142.25514280 142.25514280 142.25829836 142.26201981 142.26564072 142.26888993 142.27153635 142.27344959 142.27461525 142.27511348 142.27508761 142.27470588 142.27412908 142.27349152 142.27289372 142.27240312 142.27205970 142.27188391 142.27188391 142.27205970 142.27240312 142.27289372 142.27349152 142.27412908 142.27470588 142.27508761 142.27511348 142.27461525 142.27344959 142.27153635 142.26888993 142.26564072 142.26201981 142.25829836 142.25514280 142.25514280 142.25514280 142.25514280 142.25514280 142.25514280 142.25514280 142.25740010 142.26079830 142.26463010 142.26832415 142.27149537 142.27389380 142.27541208 142.27607995 142.27603291 142.27546647 142.27458930 142.27358769 142.27260678 142.27174683 142.27106906 142.27060592 142.27037188 142.27037188 142.27060592 142.27106906 142.27174683 142.27260678 142.27358769 142.27458930 142.27546647 142.27603291 142.27607995 142.27541208 142.27389380 142.27149537 142.26832415 142.26463010 142.26079830 142.25740010 142.25514280 142.25514280 142.25514280 142.25514280 142.25514280 142.25514280 142.25867980 142.26261401 142.26666509 142.27040380 142.27345927 142.27559271 142.27672634 142.27693451 142.27640288 142.27537178 142.27408217 142.27273788 142.27148862 142.27043015 142.26961490 142.26906611 142.26879114 142.26879114 142.26906611 142.26961490 142.27043015 142.27148862 142.27273788 142.27408217 142.27537178 142.27640288 142.27693451 142.27672634 142.27559271 142.27345927 142.27040380 142.26666509 142.26261401 142.25867980 142.25514280 142.25514280 142.25514280 142.25514280 142.25514280 142.25514280 142.25950079 142.26382735 142.26804934 142.27180853 142.27475609 142.27667062 142.27750153 142.27735931 142.27646781 142.27509989 142.27351855 142.27193803 142.27050871 142.26932075 142.26841831 142.26781653 142.26751668 142.26751668 142.26781653 142.26841831 142.26932075 142.27050871 142.27193803 142.27351855 142.27509989 142.27646781 142.27735931 142.27750153 142.27667062 142.27475609 142.27180853 142.26804934 142.26382735 142.25950079 142.25514280 142.25514280 142.25514280 142.25514280 142.25514280 142.25644299 142.26016804 142.26448888 142.26875827 142.27251537 142.27539716 142.27718827 142.27785305 142.27752199 142.27643949 142.27489549 142.27316403 142.27146400 142.26994529 142.26869434 142.26775036 142.26712383 142.26681252 142.26681252 142.26712383 142.26775036 142.26869434 142.26994529 142.27146400 142.27316403 142.27489549 142.27643949 142.27752199 142.27785305 142.27718827 142.27539716 142.27251537 142.26875827 142.26448888 142.26016804 142.25644299 142.25514280 142.25514280 142.25514280 142.25514280 142.25644299 142.26016804 142.26448888 142.26875827 142.27251537 142.27539716 142.27718827 142.27785305 142.27752199 142.27643949 142.27489549 142.27316403 142.27146400 142.26994529 142.26869434 142.26775036 142.26712383 142.26681252 142.26681252 142.26712383 142.26775036 142.26869434 142.26994529 142.27146400 142.27316403 142.27489549 142.27643949 142.27752199 142.27785305 142.27718827 142.27539716 142.27251537 142.26875827 142.26448888 142.26016804 142.25644299 142.25514280 142.25514280 142.25514280 142.25514280 142.25514280 142.25950079 142.26382735 142.26804934 142.27180853 142.27475609 142.27667062 142.27750153 142.27735931 142.27646781 142.27509989 142.27351855 142.27193803 142.27050871 142.26932075 142.26841831 142.26781653 142.26751668 142.26751668 142.26781653 142.26841831 142.26932075 142.27050871 142.27193803 142.27351855 142.27509989 142.27646781 142.27735931 142.27750153 142.27667062 142.27475609 142.27180853 142.26804934 142.26382735 142.25950079 142.25514280 142.25514280 142.25514280 142.25514280 142.25514280 142.25514280 142.25867980 142.26261401 142.26666509 142.27040380 142.27345927 142.27559271 142.27672634 142.27693451 142.27640288 142.27537178 142.27408217 142.27273788 142.27148862 142.27043015 142.26961490 142.26906611 142.26879114 142.26879114 142.26906611 142.26961490 142.27043015 142.27148862 142.27273788 142.27408217 142.27537178 142.27640288 142.27693451 142.27672634 142.27559271 142.27345927 142.27040380 142.26666509 142.26261401 142.25867980 142.25514280 142.25514280 142.25514280 142.25514280 142.25514280 142.25514280 142.25740010 142.26079830 142.26463010 142.26832415 142.27149537 142.27389380 142.27541208 142.27607995 142.27603291 142.27546647 142.27458930 142.27358769 142.27260678 142.27174683 142.27106906 142.27060592 142.27037188 142.27037188 142.27060592 142.27106906 142.27174683 142.27260678 142.27358769 142.27458930 142.27546647 142.27603291 142.27607995 142.27541208 142.27389380 142.27149537 142.26832415 142.26463010 142.26079830 142.25740010 142.25514280 142.25514280 142.25514280 142.25514280 142.25514280 142.25514280 142.25514280 142.25829836 142.26201981 142.26564072 142.26888993 142.27153635 142.27344959 142.27461525 142.27511348 142.27508761 142.27470588 142.27412908 142.27349152 142.27289372 142.27240312 142.27205970 142.27188391 142.27188391 142.27205970 142.27240312 142.27289372 142.27349152 142.27412908 142.27470588 142.27508761 142.27511348 142.27461525 142.27344959 142.27153635 142.26888993 142.26564072 142.26201981 142.25829836 142.25514280 142.25514280 142.25514280 142.25514280 142.25514280 142.25514280 142.25514280 142.25514280 142.25514280 142.25909689 142.26250950 142.26573591 142.26854883 142.27079050 142.27241251 142.27343997 142.27396261 142.27410413 142.27399247 142.27374364 142.27345250 142.27318789 142.27299302 142.27289085 142.27289085 142.27299302 142.27318789 142.27345250 142.27374364 142.27399247 142.27410413 142.27396261 142.27343997 142.27241251 142.27079050 142.26854883 142.26573591 142.26250950 142.25909689 142.25514280 142.25514280 142.25514280 142.25514280 142.25514280 142.25514280 142.25514280 142.25514280 142.25514280 142.25514280 142.25677277 142.25913845 142.26219566 142.26505589 142.26748839 142.26945278 142.27091607 142.27192067 142.27254770 142.27288557 142.27302526 142.27305123 142.27302907 142.27299890 142.27298010 142.27298010 142.27299890 142.27302907 142.27305123 142.27302526 142.27288557 142.27254770 142.27192067 142.27091607 142.26945278 142.26748839 142.26505589 142.26219566 142.25913845 142.25677277 142.25514280 142.25514280 142.25514280 142.25514280 142.25514280 142.25514280 142.25514280 142.25514280 142.25514280 142.25514280 142.25514280 142.25514280 142.25846229 142.26130328 142.26370672 142.26585558 142.26759698 142.26895042 142.26996439 142.27067683 142.27114992 142.27145934 142.27166709 142.27180165 142.27186869 142.27186869 142.27180165 142.27166709 142.27145934 142.27114992 142.27067683 142.26996439 142.26895042 142.26759698 142.26585558 142.26370672 142.26130328 142.25846229 142.25514280 142.25514280 142.25514280 142.25514280 142.25514280 142.25514280 142.25514280 142.25514280 142.25514280 142.25514280 142.25514280 142.25514280 142.25514280 142.25514280 142.25514280 142.25775384 142.25964646 142.26187628 142.26368932 142.26521743 142.26648513 142.26744645 142.26814141 142.26865450 142.26905627 142.26934621 142.26949712 142.26949712 142.26934621 142.26905627 142.26865450 142.26814141 142.26744645 142.26648513 142.26521743 142.26368932 142.26187628 142.25964646 142.25775384 142.25514280 142.25514280 142.25514280 142.25514280 142.25514280 142.25514280 142.25514280 142.25514280 142.25514280 142.25514280 142.25514280 142.25514280 142.25514280 142.25514280 142.25514280 142.25514280 142.25514280 142.25514280 142.25792979 142.25949003 142.26104806 142.26244831 142.26348648 142.26423209 142.26482486 142.26539237 142.26584288 142.26607872 142.26607872 142.26584288 142.26539237 142.26482486 142.26423209 142.26348648 142.26244831 142.26104806 142.25949003 142.25792979 142.25514280 142.25514280 142.25514280 142.25514280 142.25514280 142.25514280 142.25514280 142.25514280 142.25514280 142.25514280 142.25514280 142.25514280 142.25514280 142.25514280 142.25514280 142.25514280 142.25514280 142.25514280 142.25514280 142.25514280 142.25514280 142.25514280 142.25701473 142.25840981 142.25924207 142.25978438 142.26027354 142.26109652 142.26176900 142.26209367 142.26209367 142.26176900 142.26109652 142.26027354 142.25978438 142.25924207 142.25840981 142.25701473 142.25514280 142.25514280 142.25514280 142.25514280 142.25514280 142.25514280 142.25514280 142.25514280 142.25514280 142.25514280 142.25514280 142.25514280 142.25514280 142.25514280 142.25514280 142.25514280 142.25514280 142.25514280 142.25514280 142.25514280 142.25514280 142.25514280 142.25514280 142.25514280 142.25514280 142.25514280 142.25514280 142.25514280 142.25514280 142.25691478 142.25787654 142.25823014 142.25823014 142.25787654 142.25691478 142.25514280 142.25514280 142.25514280 142.25514280 142.25514280 142.25514280 142.25514280 142.25514280 142.25514280 142.25514280 142.25514280 142.25514280 142.25514280 142.25514280 142.25514280 142.25514280 142.25514280 142.25514280 142.25514280 142.25514280 142.25514280 142.25514280 142.25514280 142.25514280 142.25514280 142.25514280 142.25514280 142.25514280 142.25514280 142.25514280 142.25514280 142.25514280 142.25514280 142.25514280 142.25514280 142.25514280 142.25514280 142.25514280 142.25514280 142.25514280 142.25514280 142.25514280 142.25514280 142.25514280 142.25514280 142.25514280 142.25514280 142.25514280 142.25514280 142.25514280 142.25514280 142.25514280 142.25514280 142.25514280 142.25514280 142.25514280 142.25514280 142.25514280 142.25514280 142.25514280 142.25514280 142.25514280 142.25514280 142.25514280 142.25514280 142.25514280 142.25514280 142.25514280 142.25514280 142.25514280 142.25514280 142.25514280 142.25514280 142.25514280 142.25514280 142.25514280 142.25514280 142.25514280 142.25514280 142.25514280 142.25514280 142.25514280 142.25514280 142.25514280 142.25514280 142.25514280 142.25514280 142.25514280 142.25514280 142.25514280 142.25514280 142.25514280 142.25514280 142.25514280 142.25514280 142.25514280 142.25514280 142.25514280 142.25514280 142.25514280 142.25514280 142.25514280 142.25514280 142.25514280 142.25514280 142.25514280 142.25514280 142.25514280 142.25514280 142.25514280 142.25514280 142.25514280 142.25514280 142.25514280 142.25514280 142.25514280 142.25514280 142.25514280 142.25514280 142.25514280 142.25514280 142.25514280 142.25514280 142.25514280 142.25514280 142.25514280 142.25514280 142.25514280 142.25514280 142.25514280 142.25514280 142.25514280 142.25514280 142.25514280 142.25514280 142.25514280 142.25514280 142.25514280 142.25514280 142.25514280 142.25514280 142.25514280 142.25514280 142.25514280 142.25514280 142.25514280 142.25514280 142.25514280 142.25514280 142.25514280 142.25514280 142.25514280 142.25514280 142.25514280 142.25514280 142.25514280 142.25514280 142.25514280 142.25514280 142.25514280 142.25514280 142.25514280 142.25514280 142.25514280 142.25514280 142.25514280 142.25514280 142.25514280 142.25514280 142.25514280 142.25514280 142.25514280 142.25514280 142.25514280 142.25514280 142.25514280 142.25514280 142.25514280 142.25514280 142.25514280 142.25514280 142.25514280 142.25514280 142.25514280 142.25514280 142.25514280 142.25514280 142.25514280 142.25514280 142.25514280 142.25514280 142.25514280 142.25514280 142.25514280 142.25514280 142.25514280 142.25514280 142.25514280 142.25514280 142.25514280 142.25514280 142.25514280 142.25514280 142.25514280 142.25514280 142.25514280 142.25514280 142.25514280 142.25514280 142.25514280 142.25514280 142.25514280 142.25514280 142.25514280 142.25514280 142.25514280 142.25514280 142.25514280 142.25514280 142.25514280 142.25514280 142.25514280 142.25514280 142.25514280 142.25514280 142.25514280 142.25514280 142.25514280 142.25514280 142.25514280 142.25514280 142.25514280 142.25514280 142.25514280 142.25514280 142.25514280 142.25514280 142.25514280 142.25514280 142.25514280 142.25514280 142.25514280 142.25514280 142.25514280 142.25514280 142.25514280 142.25514280 142.25514280 142.25514280 142.25514280 142.25514280 142.25514280 142.25514280 142.25514280 142.25514280 142.25514280 142.25514280 142.25514280 142.25514280 142.25514280 142.25514280 142.25514280 142.25514280 142.25514280 142.25514280 142.25514280 142.25514280 142.25514280 142.25514280 142.25514280 142.25514280 142.25514280 142.25514280 142.25514280 142.25514280 142.25514280 142.25514280 142.25514280 142.25514280 142.25514280 142.25514280 142.25514280 142.25514280 142.25514280 142.25514280 142.25514280 142.25514280 142.25514280 142.25514280 142.25514280 142.25514280 142.25514280 142.25514280 142.25514280 142.25514280 142.25514280 142.25514280 142.25514280 142.25514280 142.25514280 142.25514280 142.25514280 142.25514280 142.25514280 142.25514280 142.25514280 142.25514280 142.25514280 142.25514280 142.25514280 142.25514280 142.25514280 142.25514280 142.25514280 142.25514280 142.25514280 142.25514280 142.25514280 142.25514280 142.25514280 142.25514280 142.25514280 142.25514280 142.25514280 142.25514280 142.25514280 142.25514280 142.25514280 142.25514280 142.25514280 142.25514280 142.25514280 142.25514280 142.25514280 142.25514280 142.25514280 142.25514280 