# vtk DataFile Version 3.0
VTK - Matlab export
ASCII
DATASET STRUCTURED_POINTS
DIMENSIONS 40 40 1
SPACING 1 1 1
ORIGIN 0 0 0
POINT_DATA 1600
SCALARS lambda-2 float 1
LOOKUP_TABLE default
7.22156776 7.22156776 7.22156776 7.22156776 7.22156776 7.22156776 7.22156776 7.22156776 7.22156776 7.22156776 7.22156776 7.22156776 7.22156776 7.22156776 7.22156776 7.22156776 7.22156776 7.22156776 7.22156776 7.22156776 7.22156776 7.22156776 7.22156776 7.22156776 7.22156776 7.22156776 7.22156776 7.22156776 7.22156776 7.22156776 7.22156776 7.22156776 7.22156776 7.22156776 7.22156776 7.22156776 7.22156776 7.22156776 7.22156776 7.22156776 7.22156776 7.22156776 7.22156776 7.22156776 7.22156776 7.22156776 7.22156776 7.22156776 7.22156776 7.22156776 7.22156776 7.22156776 7.22156776 7.22156776 7.22156776 7.22156776 7.22156776 7.22156776 7.22156776 7.22156776 7.22156776 7.22156776 7.22156776 7.22156776 7.22156776 7.22156776 7.22156776 7.22156776 7.22156776 7.22156776 7.22156776 7.22156776 7.22156776 7.22156776 7.22156776 7.22156776 7.22156776 7.22156776 7.22156776 7.22156776 7.22156776 7.22156776 7.22156776 7.22156776 7.22156776 7.22156776 7.22156776 7.22156776 7.22156776 7.22156776 7.22156776 7.22156776 7.22156776 7.22156776 7.22156776 7.22156776 7.22156776 7.22156776 7.22156776 7.22156776 7.22156776 7.22156776 7.22156776 7.22156776 7.22156776 7.22156776 7.22156776 7.22156776 7.22156776 7.22156776 7.22156776 7.22156776 7.22156776 7.22156776 7.22156776 7.22156776 7.22156776 7.22156776 7.22156776 7.22156776 7.22156776 7.22156776 7.22156776 7.22156776 7.22156776 7.22156776 7.22156776 7.22156776 7.22156776 7.22156776 7.22156776 7.22156776 7.22156776 7.22156776 7.22156776 7.22156776 7.22156776 7.22156776 7.22156776 7.22156776 7.22156776 7.22156776 7.22156776 7.22156776 7.22156776 7.22156776 7.22156776 7.22156776 7.22156776 7.22156776 7.22156776 7.22156776 7.22156776 7.22156776 7.22156776 7.22156776 7.22156776 7.22156776 7.22156776 7.22156776 7.22156776 7.22156776 7.22156776 7.22156776 7.22156776 7.22156776 7.22156776 7.22156776 7.22156776 7.22156776 7.22156776 7.22156776 7.22156776 7.22156776 7.22156776 7.22156776 7.22156776 7.22156776 7.22156776 7.22156776 7.22156776 7.22156776 7.22156776 7.22156776 7.22156776 7.22156776 7.22156776 7.22156776 7.22156776 7.22156776 7.22156776 7.22156776 7.22156776 7.22156776 7.22156776 7.22156776 7.22156776 7.22156776 7.22156776 7.22156776 7.22156776 7.22156776 7.22156776 7.22156776 7.22156776 7.22156776 7.22156776 7.22156776 7.22156776 7.22156776 7.22156776 7.22156776 7.22156776 7.22156776 7.22156776 7.22156776 7.22156776 7.22156776 7.22156776 7.22156776 7.22156776 7.22156776 7.22156776 7.22156776 7.22156776 7.22156776 7.22156776 7.22156776 7.22156776 7.22156776 7.22156776 7.22156776 7.22156776 7.22156776 7.22156776 7.22156776 7.22156776 7.22156776 7.22156776 7.22156776 7.22156776 7.22156776 7.22156776 7.22156776 7.22156776 7.22156776 7.22156776 7.22156776 7.22156776 7.22156776 7.22156776 7.22156776 7.22156776 7.22156776 7.22156776 7.22156776 7.22156776 7.22156776 7.22156776 7.22156776 7.22156776 7.22156776 7.22156776 7.22156776 7.22156776 7.22156776 7.22156776 7.22156776 7.22156776 7.22156776 7.22156776 7.22156776 7.22156776 7.22156776 7.22156776 7.22156776 7.22156776 7.22156776 7.22156776 7.22156776 7.22156776 7.22156776 7.22156776 7.22156776 7.22156776 7.22156776 7.22156776 7.22156776 7.22156776 7.22156776 7.22156776 7.22156776 7.22156776 7.22156776 7.22156776 7.22156776 7.22156776 7.22156776 7.22156776 7.22156776 7.22156776 7.22156776 7.22156776 7.22156776 7.22156776 7.22156776 7.22156776 7.22156776 7.22156776 7.22156776 7.22156776 7.22156776 7.22156776 7.22156776 7.22156776 7.22156776 7.22156776 7.22156776 7.22156776 7.22156776 7.22156776 7.22156776 7.22156776 7.22156776 7.22156776 7.22156776 7.22156776 7.22156776 7.22156776 7.22156776 7.22156776 7.22156776 7.22156776 7.22156776 7.22156776 7.22156776 7.22156776 7.21383771 7.20902816 7.20704844 7.20704844 7.20902816 7.21383771 7.22156776 7.22156776 7.22156776 7.22156776 7.22156776 7.22156776 7.22156776 7.22156776 7.22156776 7.22156776 7.22156776 7.22156776 7.22156776 7.22156776 7.22156776 7.22156776 7.22156776 7.22156776 7.22156776 7.22156776 7.22156776 7.22156776 7.22156776 7.22156776 7.22156776 7.22156776 7.22156776 7.22156776 7.22156776 7.21350494 7.20757231 7.20459874 7.20325944 7.20202813 7.19870327 7.19546550 7.19374525 7.19374525 7.19546550 7.19870327 7.20202813 7.20325944 7.20459874 7.20757231 7.21350494 7.22156776 7.22156776 7.22156776 7.22156776 7.22156776 7.22156776 7.22156776 7.22156776 7.22156776 7.22156776 7.22156776 7.22156776 7.22156776 7.22156776 7.22156776 7.22156776 7.22156776 7.22156776 7.22156776 7.22156776 7.22156776 7.22156776 7.20978964 7.20389380 7.19857519 7.19438231 7.19229299 7.19171807 7.19146572 7.19049528 7.18922500 7.18843041 7.18843041 7.18922500 7.19049528 7.19146572 7.19171807 7.19229299 7.19438231 7.19857519 7.20389380 7.20978964 7.22156776 7.22156776 7.22156776 7.22156776 7.22156776 7.22156776 7.22156776 7.22156776 7.22156776 7.22156776 7.22156776 7.22156776 7.22156776 7.22156776 7.22156776 7.22156776 7.22156776 7.22156776 7.21066244 7.20370598 7.19629635 7.19199349 7.18976263 7.18891501 7.18933615 7.19052958 7.19174551 7.19242508 7.19260632 7.19260585 7.19260585 7.19260632 7.19242508 7.19174551 7.19052958 7.18933615 7.18891501 7.18976263 7.19199349 7.19629635 7.20370598 7.21066244 7.22156776 7.22156776 7.22156776 7.22156776 7.22156776 7.22156776 7.22156776 7.22156776 7.22156776 7.22156776 7.22156776 7.22156776 7.22156776 7.22156776 7.22156776 7.20827899 7.19833583 7.19235426 7.18915722 7.18876491 7.19015787 7.19235341 7.19484042 7.19725230 7.19925292 7.20064316 7.20145285 7.20181708 7.20181708 7.20145285 7.20064316 7.19925292 7.19725230 7.19484042 7.19235341 7.19015787 7.18876491 7.18915722 7.19235426 7.19833583 7.20827899 7.22156776 7.22156776 7.22156776 7.22156776 7.22156776 7.22156776 7.22156776 7.22156776 7.22156776 7.22156776 7.22156776 7.22156776 7.21447822 7.20551115 7.19595686 7.19014439 7.18854037 7.18996605 7.19320892 7.19707123 7.20073077 7.20384849 7.20634240 7.20821144 7.20949895 7.21028991 7.21066600 7.21066600 7.21028991 7.20949895 7.20821144 7.20634240 7.20384849 7.20073077 7.19707123 7.19320892 7.18996605 7.18854037 7.19014439 7.19595686 7.20551115 7.21447822 7.22156776 7.22156776 7.22156776 7.22156776 7.22156776 7.22156776 7.22156776 7.22156776 7.22156776 7.22156776 7.20520415 7.19457770 7.18896953 7.18837463 7.19142276 7.19622076 7.20128741 7.20574245 7.20924896 7.21183704 7.21368016 7.21495489 7.21580091 7.21631848 7.21656618 7.21656618 7.21631848 7.21580091 7.21495489 7.21368016 7.21183704 7.20924896 7.20574245 7.20128741 7.19622076 7.19142276 7.18837463 7.18896953 7.19457770 7.20520415 7.22156776 7.22156776 7.22156776 7.22156776 7.22156776 7.22156776 7.22156776 7.22156776 7.22156776 7.20759717 7.19480544 7.18803488 7.18765426 7.19182040 7.19796798 7.20407363 7.20910683 7.21281373 7.21535302 7.21702197 7.21810007 7.21879239 7.21923151 7.21949479 7.21961996 7.21961996 7.21949479 7.21923151 7.21879239 7.21810007 7.21702197 7.21535302 7.21281373 7.20910683 7.20407363 7.19796798 7.19182040 7.18765426 7.18803488 7.19480544 7.20759717 7.22156776 7.22156776 7.22156776 7.22156776 7.22156776 7.22156776 7.22156776 7.21049876 7.19699216 7.18776032 7.18597048 7.19037989 7.19768578 7.20497292 7.21075392 7.21475377 7.21729129 7.21881894 7.21971675 7.22024419 7.22055858 7.22074826 7.22085894 7.22091093 7.22091093 7.22085894 7.22074826 7.22055858 7.22024419 7.21971675 7.21881894 7.21729129 7.21475377 7.21075392 7.20497292 7.19768578 7.19037989 7.18597048 7.18776032 7.19699216 7.21049876 7.22156776 7.22156776 7.22156776 7.22156776 7.22156776 7.22156776 7.20456574 7.19066537 7.18456165 7.18702141 7.19472295 7.20342940 7.21050878 7.21526613 7.21809188 7.21964432 7.22046236 7.22088914 7.22111566 7.22124031 7.22131150 7.22135173 7.22137034 7.22137034 7.22135173 7.22131150 7.22124031 7.22111566 7.22088914 7.22046236 7.21964432 7.21809188 7.21526613 7.21050878 7.20342940 7.19472295 7.18702141 7.18456165 7.19066537 7.20456574 7.22156776 7.22156776 7.22156776 7.22156776 7.22156776 7.22156776 7.20120973 7.18748660 7.18383146 7.18914837 7.19860857 7.20760553 7.21401082 7.21779470 7.21976049 7.22069975 7.22112985 7.22132634 7.22141922 7.22146587 7.22149091 7.22150459 7.22151081 7.22151081 7.22150459 7.22149091 7.22146587 7.22141922 7.22132634 7.22112985 7.22069975 7.21976049 7.21779470 7.21401082 7.20760553 7.19860857 7.18914837 7.18383146 7.18748660 7.20120973 7.22156776 7.22156776 7.22156776 7.22156776 7.22156776 7.21505737 7.19830034 7.18596896 7.18389330 7.19064160 7.20079877 7.20972176 7.21563836 7.21887522 7.22041481 7.22107901 7.22135025 7.22146018 7.22150659 7.22152783 7.22153856 7.22154424 7.22154681 7.22154681 7.22154424 7.22153856 7.22152783 7.22150659 7.22146018 7.22135025 7.22107901 7.22041481 7.21887522 7.21563836 7.20972176 7.20079877 7.19064160 7.18389330 7.18596896 7.19830034 7.21505737 7.22156776 7.22156776 7.22156776 7.22156776 7.21505737 7.19830034 7.18596896 7.18389330 7.19064160 7.20079877 7.20972176 7.21563836 7.21887522 7.22041481 7.22107901 7.22135025 7.22146018 7.22150659 7.22152783 7.22153856 7.22154424 7.22154681 7.22154681 7.22154424 7.22153856 7.22152783 7.22150659 7.22146018 7.22135025 7.22107901 7.22041481 7.21887522 7.21563836 7.20972176 7.20079877 7.19064160 7.18389330 7.18596896 7.19830034 7.21505737 7.22156776 7.22156776 7.22156776 7.22156776 7.22156776 7.20120973 7.18748660 7.18383146 7.18914837 7.19860857 7.20760553 7.21401082 7.21779470 7.21976049 7.22069975 7.22112985 7.22132634 7.22141922 7.22146587 7.22149091 7.22150459 7.22151081 7.22151081 7.22150459 7.22149091 7.22146587 7.22141922 7.22132634 7.22112985 7.22069975 7.21976049 7.21779470 7.21401082 7.20760553 7.19860857 7.18914837 7.18383146 7.18748660 7.20120973 7.22156776 7.22156776 7.22156776 7.22156776 7.22156776 7.22156776 7.20456574 7.19066537 7.18456165 7.18702141 7.19472295 7.20342940 7.21050878 7.21526613 7.21809188 7.21964432 7.22046236 7.22088914 7.22111566 7.22124031 7.22131150 7.22135173 7.22137034 7.22137034 7.22135173 7.22131150 7.22124031 7.22111566 7.22088914 7.22046236 7.21964432 7.21809188 7.21526613 7.21050878 7.20342940 7.19472295 7.18702141 7.18456165 7.19066537 7.20456574 7.22156776 7.22156776 7.22156776 7.22156776 7.22156776 7.22156776 7.21049876 7.19699216 7.18776032 7.18597048 7.19037989 7.19768578 7.20497292 7.21075392 7.21475377 7.21729129 7.21881894 7.21971675 7.22024419 7.22055858 7.22074826 7.22085894 7.22091093 7.22091093 7.22085894 7.22074826 7.22055858 7.22024419 7.21971675 7.21881894 7.21729129 7.21475377 7.21075392 7.20497292 7.19768578 7.19037989 7.18597048 7.18776032 7.19699216 7.21049876 7.22156776 7.22156776 7.22156776 7.22156776 7.22156776 7.22156776 7.22156776 7.20759717 7.19480544 7.18803488 7.18765426 7.19182040 7.19796798 7.20407363 7.20910683 7.21281373 7.21535302 7.21702197 7.21810007 7.21879239 7.21923151 7.21949479 7.21961996 7.21961996 7.21949479 7.21923151 7.21879239 7.21810007 7.21702197 7.21535302 7.21281373 7.20910683 7.20407363 7.19796798 7.19182040 7.18765426 7.18803488 7.19480544 7.20759717 7.22156776 7.22156776 7.22156776 7.22156776 7.22156776 7.22156776 7.22156776 7.22156776 7.22156776 7.20520415 7.19457770 7.18896953 7.18837463 7.19142276 7.19622076 7.20128741 7.20574245 7.20924896 7.21183704 7.21368016 7.21495489 7.21580091 7.21631848 7.21656618 7.21656618 7.21631848 7.21580091 7.21495489 7.21368016 7.21183704 7.20924896 7.20574245 7.20128741 7.19622076 7.19142276 7.18837463 7.18896953 7.19457770 7.20520415 7.22156776 7.22156776 7.22156776 7.22156776 7.22156776 7.22156776 7.22156776 7.22156776 7.22156776 7.22156776 7.21447822 7.20551115 7.19595686 7.19014439 7.18854037 7.18996605 7.19320892 7.19707123 7.20073077 7.20384849 7.20634240 7.20821144 7.20949895 7.21028991 7.21066600 7.21066600 7.21028991 7.20949895 7.20821144 7.20634240 7.20384849 7.20073077 7.19707123 7.19320892 7.18996605 7.18854037 7.19014439 7.19595686 7.20551115 7.21447822 7.22156776 7.22156776 7.22156776 7.22156776 7.22156776 7.22156776 7.22156776 7.22156776 7.22156776 7.22156776 7.22156776 7.22156776 7.20827899 7.19833583 7.19235426 7.18915722 7.18876491 7.19015787 7.19235341 7.19484042 7.19725230 7.19925292 7.20064316 7.20145285 7.20181708 7.20181708 7.20145285 7.20064316 7.19925292 7.19725230 7.19484042 7.19235341 7.19015787 7.18876491 7.18915722 7.19235426 7.19833583 7.20827899 7.22156776 7.22156776 7.22156776 7.22156776 7.22156776 7.22156776 7.22156776 7.22156776 7.22156776 7.22156776 7.22156776 7.22156776 7.22156776 7.22156776 7.22156776 7.21066244 7.20370598 7.19629635 7.19199349 7.18976263 7.18891501 7.18933615 7.19052958 7.19174551 7.19242508 7.19260632 7.19260585 7.19260585 7.19260632 7.19242508 7.19174551 7.19052958 7.18933615 7.18891501 7.18976263 7.19199349 7.19629635 7.20370598 7.21066244 7.22156776 7.22156776 7.22156776 7.22156776 7.22156776 7.22156776 7.22156776 7.22156776 7.22156776 7.22156776 7.22156776 7.22156776 7.22156776 7.22156776 7.22156776 7.22156776 7.22156776 7.22156776 7.20978964 7.20389380 7.19857519 7.19438231 7.19229299 7.19171807 7.19146572 7.19049528 7.18922500 7.18843041 7.18843041 7.18922500 7.19049528 7.19146572 7.19171807 7.19229299 7.19438231 7.19857519 7.20389380 7.20978964 7.22156776 7.22156776 7.22156776 7.22156776 7.22156776 7.22156776 7.22156776 7.22156776 7.22156776 7.22156776 7.22156776 7.22156776 7.22156776 7.22156776 7.22156776 7.22156776 7.22156776 7.22156776 7.22156776 7.22156776 7.22156776 7.22156776 7.21350494 7.20757231 7.20459874 7.20325944 7.20202813 7.19870327 7.19546550 7.19374525 7.19374525 7.19546550 7.19870327 7.20202813 7.20325944 7.20459874 7.20757231 7.21350494 7.22156776 7.22156776 7.22156776 7.22156776 7.22156776 7.22156776 7.22156776 7.22156776 7.22156776 7.22156776 7.22156776 7.22156776 7.22156776 7.22156776 7.22156776 7.22156776 7.22156776 7.22156776 7.22156776 7.22156776 7.22156776 7.22156776 7.22156776 7.22156776 7.22156776 7.22156776 7.22156776 7.22156776 7.22156776 7.21383771 7.20902816 7.20704844 7.20704844 7.20902816 7.21383771 7.22156776 7.22156776 7.22156776 7.22156776 7.22156776 7.22156776 7.22156776 7.22156776 7.22156776 7.22156776 7.22156776 7.22156776 7.22156776 7.22156776 7.22156776 7.22156776 7.22156776 7.22156776 7.22156776 7.22156776 7.22156776 7.22156776 7.22156776 7.22156776 7.22156776 7.22156776 7.22156776 7.22156776 7.22156776 7.22156776 7.22156776 7.22156776 7.22156776 7.22156776 7.22156776 7.22156776 7.22156776 7.22156776 7.22156776 7.22156776 7.22156776 7.22156776 7.22156776 7.22156776 7.22156776 7.22156776 7.22156776 7.22156776 7.22156776 7.22156776 7.22156776 7.22156776 7.22156776 7.22156776 7.22156776 7.22156776 7.22156776 7.22156776 7.22156776 7.22156776 7.22156776 7.22156776 7.22156776 7.22156776 7.22156776 7.22156776 7.22156776 7.22156776 7.22156776 7.22156776 7.22156776 7.22156776 7.22156776 7.22156776 7.22156776 7.22156776 7.22156776 7.22156776 7.22156776 7.22156776 7.22156776 7.22156776 7.22156776 7.22156776 7.22156776 7.22156776 7.22156776 7.22156776 7.22156776 7.22156776 7.22156776 7.22156776 7.22156776 7.22156776 7.22156776 7.22156776 7.22156776 7.22156776 7.22156776 7.22156776 7.22156776 7.22156776 7.22156776 7.22156776 7.22156776 7.22156776 7.22156776 7.22156776 7.22156776 7.22156776 7.22156776 7.22156776 7.22156776 7.22156776 7.22156776 7.22156776 7.22156776 7.22156776 7.22156776 7.22156776 7.22156776 7.22156776 7.22156776 7.22156776 7.22156776 7.22156776 7.22156776 7.22156776 7.22156776 7.22156776 7.22156776 7.22156776 7.22156776 7.22156776 7.22156776 7.22156776 7.22156776 7.22156776 7.22156776 7.22156776 7.22156776 7.22156776 7.22156776 7.22156776 7.22156776 7.22156776 7.22156776 7.22156776 7.22156776 7.22156776 7.22156776 7.22156776 7.22156776 7.22156776 7.22156776 7.22156776 7.22156776 7.22156776 7.22156776 7.22156776 7.22156776 7.22156776 7.22156776 7.22156776 7.22156776 7.22156776 7.22156776 7.22156776 7.22156776 7.22156776 7.22156776 7.22156776 7.22156776 7.22156776 7.22156776 7.22156776 7.22156776 7.22156776 7.22156776 7.22156776 7.22156776 7.22156776 7.22156776 7.22156776 7.22156776 7.22156776 7.22156776 7.22156776 7.22156776 7.22156776 7.22156776 7.22156776 7.22156776 7.22156776 7.22156776 7.22156776 7.22156776 7.22156776 7.22156776 7.22156776 7.22156776 7.22156776 7.22156776 7.22156776 7.22156776 7.22156776 7.22156776 7.22156776 7.22156776 7.22156776 7.22156776 7.22156776 7.22156776 7.22156776 7.22156776 7.22156776 7.22156776 7.22156776 7.22156776 7.22156776 7.22156776 7.22156776 7.22156776 7.22156776 7.22156776 7.22156776 7.22156776 7.22156776 7.22156776 7.22156776 7.22156776 7.22156776 7.22156776 7.22156776 7.22156776 7.22156776 7.22156776 7.22156776 7.22156776 7.22156776 7.22156776 7.22156776 7.22156776 7.22156776 7.22156776 7.22156776 7.22156776 7.22156776 7.22156776 7.22156776 7.22156776 7.22156776 7.22156776 7.22156776 7.22156776 7.22156776 7.22156776 7.22156776 7.22156776 7.22156776 7.22156776 7.22156776 7.22156776 7.22156776 7.22156776 7.22156776 7.22156776 7.22156776 7.22156776 7.22156776 7.22156776 7.22156776 7.22156776 7.22156776 7.22156776 7.22156776 7.22156776 7.22156776 7.22156776 7.22156776 7.22156776 7.22156776 7.22156776 7.22156776 7.22156776 7.22156776 7.22156776 7.22156776 7.22156776 7.22156776 7.22156776 7.22156776 7.22156776 7.22156776 7.22156776 7.22156776 7.22156776 7.22156776 7.22156776 7.22156776 7.22156776 7.22156776 7.22156776 7.22156776 7.22156776 7.22156776 7.22156776 7.22156776 7.22156776 7.22156776 7.22156776 7.22156776 7.22156776 7.22156776 7.22156776 7.22156776 7.22156776 7.22156776 7.22156776 7.22156776 7.22156776 7.22156776 7.22156776 7.22156776 7.22156776 7.22156776 7.22156776 7.22156776 7.22156776 7.22156776 7.22156776 7.22156776 7.22156776 7.22156776 7.22156776 7.22156776 7.22156776 