# vtk DataFile Version 3.0
VTK - Matlab export
ASCII
DATASET STRUCTURED_POINTS
DIMENSIONS 40 40 1
SPACING 1 1 1
ORIGIN 0 0 0
POINT_DATA 1600
SCALARS Temperature float 1
LOOKUP_TABLE default
300.00000000 300.00000000 300.00000000 300.00000000 300.00000000 300.00000000 300.00000000 300.00000000 300.00000000 300.00000000 300.00000000 300.00000000 300.00000000 300.00000000 300.00000000 300.00000000 300.00000000 300.00000000 300.00000000 300.00000000 300.00000000 300.00000000 300.00000000 300.00000000 300.00000000 300.00000000 300.00000000 300.00000000 300.00000000 300.00000000 300.00000000 300.00000000 300.00000000 300.00000000 300.00000000 300.00000000 300.00000000 300.00000000 300.00000000 300.00000000 300.00000000 300.00000000 300.00000000 300.00000000 300.00000000 300.00000000 300.00000000 300.00000000 300.00000000 300.00000000 300.00000000 300.00000000 300.00000000 300.00000000 300.00000000 300.00000000 300.00000000 300.00000000 300.00000000 300.00000000 300.00000000 300.00000000 300.00000000 300.00000000 300.00000000 300.00000000 300.00000000 300.00000000 300.00000000 300.00000000 300.00000000 300.00000000 300.00000000 300.00000000 300.00000000 300.00000000 300.00000000 300.00000000 300.00000000 300.00000000 300.00000000 300.00000000 300.00000000 300.00000000 300.00000000 300.00000000 300.00000000 300.00000000 300.00000000 300.00000000 300.00000000 300.00000000 300.00000000 300.00000000 300.00000000 300.00000000 300.00000000 300.00000000 300.00000000 300.00000000 300.00000000 300.00000000 300.00000000 300.00000000 300.00000000 300.00000000 300.00000000 300.00000000 300.00000000 300.00000000 300.00000000 300.00000000 300.00000000 300.00000000 300.00000000 300.00000000 300.00000000 300.00000000 300.00000000 300.00000000 300.00000000 300.00000000 300.00000000 300.00000000 300.00000000 300.00000000 300.00000000 300.00000000 300.00000000 300.00000000 300.00000000 300.00000000 300.00000000 300.00000000 300.00000000 300.00000000 300.00000000 300.00000000 300.00000000 300.00000000 300.00000000 300.00000000 300.00000000 300.00000000 300.00000000 300.00000000 300.00000000 300.00000000 300.00000000 300.00000000 300.00000000 300.00000000 300.00000000 300.00000000 300.00000000 300.00000000 300.00000000 300.00000000 300.00000000 300.00000000 300.00000000 300.00000000 300.00000000 300.00000000 300.00000000 300.00000000 300.00000000 300.00000000 300.00000000 300.00000000 300.00000000 300.00000000 300.00000000 300.00000000 300.00000000 300.00000000 300.00000000 300.00000000 300.00000000 300.00000000 300.00000000 300.00000000 300.00000000 300.00000000 300.00000000 300.00000000 300.00000000 300.00000000 300.00000000 300.00000000 300.00000000 300.00000000 300.00000000 300.00000000 300.00000000 300.00000000 300.00000000 300.00000000 300.00000000 300.00000000 300.00000000 300.00000000 300.00000000 300.00000000 300.00000000 300.00000000 300.00000000 300.00000000 300.00000000 300.00000000 300.00000000 300.00000000 300.00000000 300.00000000 300.00000000 300.00000000 300.00000000 300.00000000 300.00000000 300.00000000 300.00000000 300.00000000 300.00000000 300.00000000 300.00000000 300.00000000 300.00000000 300.00000000 300.00000000 300.00000000 300.00000000 300.00000000 300.00000000 300.00000000 300.00000000 300.00000000 300.00000000 300.00000000 300.00000000 300.00000000 300.00000000 300.00000000 300.00000000 300.00000000 300.00000000 300.00000000 300.00000000 300.00000000 300.00000000 300.00000000 300.00000000 300.00000000 300.00000000 300.00000000 300.00000000 300.00000000 300.00000000 300.00000000 300.00000000 300.00000000 300.00000000 300.00000000 300.00000000 300.00000000 300.00000000 300.00000000 300.00000000 300.00000000 300.00000000 300.00000000 300.00000000 300.00000000 300.00000000 300.00000000 300.00000000 300.00000000 300.00000000 300.00000000 300.00000000 300.00000000 300.00000000 300.00000000 300.00000000 300.00000000 300.00000000 300.00000000 300.00000000 300.00000000 300.00000000 300.00000000 300.00000000 300.00000000 300.00000000 300.00000000 300.00000000 300.00000000 300.00000000 300.00000000 300.00000000 300.00000000 300.00000000 300.00000000 300.00000000 300.00000000 300.00000000 300.00000000 300.00000000 300.00000000 300.00000000 300.00000000 300.00000000 300.00000000 300.00000000 300.00000000 300.00000000 300.00000000 300.00000000 300.00000000 300.00000000 300.00000000 300.00000000 300.00000000 300.00000000 300.00000000 300.00000000 300.00000000 300.00000000 300.00000000 300.00000000 300.00000000 300.00000000 300.00000000 300.00000000 300.00000000 300.00000000 300.00000000 300.00000000 314.48654937 322.26299478 325.10892186 325.10892186 322.26299478 314.48654937 300.00000000 300.00000000 300.00000000 300.00000000 300.00000000 300.00000000 300.00000000 300.00000000 300.00000000 300.00000000 300.00000000 300.00000000 300.00000000 300.00000000 300.00000000 300.00000000 300.00000000 300.00000000 300.00000000 300.00000000 300.00000000 300.00000000 300.00000000 300.00000000 300.00000000 300.00000000 300.00000000 300.00000000 300.00000000 314.36786823 325.47056214 332.57907305 337.63928559 342.30291149 349.48086918 355.22631952 357.99968408 357.99968408 355.22631952 349.48086918 342.30291149 337.63928559 332.57907305 325.47056214 314.36786823 300.00000000 300.00000000 300.00000000 300.00000000 300.00000000 300.00000000 300.00000000 300.00000000 300.00000000 300.00000000 300.00000000 300.00000000 300.00000000 300.00000000 300.00000000 300.00000000 300.00000000 300.00000000 300.00000000 300.00000000 300.00000000 300.00000000 320.40978622 332.65129849 345.60536824 357.94314814 367.94630705 375.88717357 382.53759347 388.62858377 393.29162334 395.71362702 395.71362702 393.29162334 388.62858377 382.53759347 375.88717357 367.94630705 357.94314814 345.60536824 332.65129849 320.40978622 300.00000000 300.00000000 300.00000000 300.00000000 300.00000000 300.00000000 300.00000000 300.00000000 300.00000000 300.00000000 300.00000000 300.00000000 300.00000000 300.00000000 300.00000000 300.00000000 300.00000000 300.00000000 317.98639775 332.00404769 349.52022999 365.22513225 379.89394082 393.37010365 404.93560228 414.48340023 422.24979829 428.43856948 432.82540603 435.08774680 435.08774680 432.82540603 428.43856948 422.24979829 414.48340023 404.93560228 393.37010365 379.89394082 365.22513225 349.52022999 332.00404769 317.98639775 300.00000000 300.00000000 300.00000000 300.00000000 300.00000000 300.00000000 300.00000000 300.00000000 300.00000000 300.00000000 300.00000000 300.00000000 300.00000000 300.00000000 300.00000000 322.04415502 342.30367363 361.32903871 380.38956576 398.22361066 414.56354019 429.20297146 441.82410109 452.31409129 460.73329063 467.15344989 471.52476787 473.74087700 473.74087700 471.52476787 467.15344989 460.73329063 452.31409129 441.82410109 429.20297146 414.56354019 398.22361066 380.38956576 361.32903871 342.30367363 322.04415502 300.00000000 300.00000000 300.00000000 300.00000000 300.00000000 300.00000000 300.00000000 300.00000000 300.00000000 300.00000000 300.00000000 300.00000000 309.98180042 325.26525836 346.44983318 368.48276346 390.14047343 411.03836597 430.50182515 448.13488847 463.69653791 477.01090519 488.02037882 496.76548941 503.30989530 507.68015683 509.86984036 509.86984036 507.68015683 503.30989530 496.76548941 488.02037882 477.01090519 463.69653791 448.13488847 430.50182515 411.03836597 390.14047343 368.48276346 346.44983318 325.26525836 309.98180042 300.00000000 300.00000000 300.00000000 300.00000000 300.00000000 300.00000000 300.00000000 300.00000000 300.00000000 300.00000000 323.92127168 346.23395209 369.89621647 393.98528668 417.59431664 440.04201936 460.73471498 479.27471991 495.43737841 509.12262987 520.33599417 529.15440431 535.67649407 539.98310773 542.12464025 542.12464025 539.98310773 535.67649407 529.15440431 520.33599417 509.12262987 495.43737841 479.27471991 460.73471498 440.04201936 417.59431664 393.98528668 369.89621647 346.23395209 323.92127168 300.00000000 300.00000000 300.00000000 300.00000000 300.00000000 300.00000000 300.00000000 300.00000000 300.00000000 318.19768854 341.04223144 365.69057744 391.43595980 417.33723901 442.48773399 466.13415286 487.69778964 506.80525228 523.27228106 537.06263480 548.24621473 556.95392622 563.33246139 567.50949625 569.57507783 569.57507783 567.50949625 563.33246139 556.95392622 548.24621473 537.06263480 523.27228106 506.80525228 487.69778964 466.13415286 442.48773399 417.33723901 391.43595980 365.69057744 341.04223144 318.19768854 300.00000000 300.00000000 300.00000000 300.00000000 300.00000000 300.00000000 300.00000000 312.49338259 332.15523265 356.20313426 382.59416598 410.02678137 437.39230502 463.72412987 488.23949055 510.37123967 529.77880610 546.32629661 560.03773311 571.04450083 579.53280986 585.69721657 589.70582638 591.67903407 591.67903407 589.70582638 585.69721657 579.53280986 571.04450083 560.03773311 546.32629661 529.77880610 510.37123967 488.23949055 463.72412987 437.39230502 410.02678137 382.59416598 356.20313426 332.15523265 312.49338259 300.00000000 300.00000000 300.00000000 300.00000000 300.00000000 300.00000000 319.41612736 342.16638412 368.06174564 395.99181308 424.75916300 453.23061658 480.41230848 505.51246826 527.97914539 547.50525324 564.00088589 577.54296303 588.31583899 596.55362463 602.49147937 606.32986278 608.21202075 608.21202075 606.32986278 602.49147937 596.55362463 588.31583899 577.54296303 564.00088589 547.50525324 527.97914539 505.51246826 480.41230848 453.23061658 424.75916300 395.99181308 368.06174564 342.16638412 319.41612736 300.00000000 300.00000000 300.00000000 300.00000000 300.00000000 300.00000000 323.79948697 348.82986090 376.19234942 405.25651336 434.95322358 464.16533296 491.89307056 517.34549539 539.98547578 559.53315393 575.93426071 589.30523573 599.86932190 607.89551712 613.64809392 617.35005397 619.16007450 619.16007450 617.35005397 613.64809392 607.89551712 599.86932190 589.30523573 575.93426071 559.53315393 539.98547578 517.34549539 491.89307056 464.16533296 434.95322358 405.25651336 376.19234942 348.82986090 323.79948697 300.00000000 300.00000000 300.00000000 300.00000000 300.00000000 306.96828666 327.32346797 352.44266062 380.37728269 409.99728070 440.16295048 469.74466715 497.73816451 523.35412993 546.06432263 565.60409624 581.93858237 595.20535485 605.64822627 613.55451134 619.20361856 622.83010144 624.60042410 624.60042410 622.83010144 619.20361856 613.55451134 605.64822627 595.20535485 581.93858237 565.60409624 546.06432263 523.35412993 497.73816451 469.74466715 440.16295048 409.99728070 380.37728269 352.44266062 327.32346797 306.96828666 300.00000000 300.00000000 300.00000000 300.00000000 306.96828666 327.32346797 352.44266062 380.37728269 409.99728070 440.16295048 469.74466715 497.73816451 523.35412993 546.06432263 565.60409624 581.93858237 595.20535485 605.64822627 613.55451134 619.20361856 622.83010144 624.60042410 624.60042410 622.83010144 619.20361856 613.55451134 605.64822627 595.20535485 581.93858237 565.60409624 546.06432263 523.35412993 497.73816451 469.74466715 440.16295048 409.99728070 380.37728269 352.44266062 327.32346797 306.96828666 300.00000000 300.00000000 300.00000000 300.00000000 300.00000000 323.79948697 348.82986090 376.19234942 405.25651336 434.95322358 464.16533296 491.89307056 517.34549539 539.98547578 559.53315393 575.93426071 589.30523573 599.86932190 607.89551712 613.64809392 617.35005397 619.16007450 619.16007450 617.35005397 613.64809392 607.89551712 599.86932190 589.30523573 575.93426071 559.53315393 539.98547578 517.34549539 491.89307056 464.16533296 434.95322358 405.25651336 376.19234942 348.82986090 323.79948697 300.00000000 300.00000000 300.00000000 300.00000000 300.00000000 300.00000000 319.41612736 342.16638412 368.06174564 395.99181308 424.75916300 453.23061658 480.41230848 505.51246826 527.97914539 547.50525324 564.00088589 577.54296303 588.31583899 596.55362463 602.49147937 606.32986278 608.21202075 608.21202075 606.32986278 602.49147937 596.55362463 588.31583899 577.54296303 564.00088589 547.50525324 527.97914539 505.51246826 480.41230848 453.23061658 424.75916300 395.99181308 368.06174564 342.16638412 319.41612736 300.00000000 300.00000000 300.00000000 300.00000000 300.00000000 300.00000000 312.49338259 332.15523265 356.20313426 382.59416598 410.02678137 437.39230502 463.72412987 488.23949055 510.37123967 529.77880610 546.32629661 560.03773311 571.04450083 579.53280986 585.69721657 589.70582638 591.67903407 591.67903407 589.70582638 585.69721657 579.53280986 571.04450083 560.03773311 546.32629661 529.77880610 510.37123967 488.23949055 463.72412987 437.39230502 410.02678137 382.59416598 356.20313426 332.15523265 312.49338259 300.00000000 300.00000000 300.00000000 300.00000000 300.00000000 300.00000000 300.00000000 318.19768854 341.04223144 365.69057744 391.43595980 417.33723901 442.48773399 466.13415286 487.69778964 506.80525228 523.27228106 537.06263480 548.24621473 556.95392622 563.33246139 567.50949625 569.57507783 569.57507783 567.50949625 563.33246139 556.95392622 548.24621473 537.06263480 523.27228106 506.80525228 487.69778964 466.13415286 442.48773399 417.33723901 391.43595980 365.69057744 341.04223144 318.19768854 300.00000000 300.00000000 300.00000000 300.00000000 300.00000000 300.00000000 300.00000000 300.00000000 300.00000000 323.92127168 346.23395209 369.89621647 393.98528668 417.59431664 440.04201936 460.73471498 479.27471991 495.43737841 509.12262987 520.33599417 529.15440431 535.67649407 539.98310773 542.12464025 542.12464025 539.98310773 535.67649407 529.15440431 520.33599417 509.12262987 495.43737841 479.27471991 460.73471498 440.04201936 417.59431664 393.98528668 369.89621647 346.23395209 323.92127168 300.00000000 300.00000000 300.00000000 300.00000000 300.00000000 300.00000000 300.00000000 300.00000000 300.00000000 300.00000000 309.98180042 325.26525836 346.44983318 368.48276346 390.14047343 411.03836597 430.50182515 448.13488847 463.69653791 477.01090519 488.02037882 496.76548941 503.30989530 507.68015683 509.86984036 509.86984036 507.68015683 503.30989530 496.76548941 488.02037882 477.01090519 463.69653791 448.13488847 430.50182515 411.03836597 390.14047343 368.48276346 346.44983318 325.26525836 309.98180042 300.00000000 300.00000000 300.00000000 300.00000000 300.00000000 300.00000000 300.00000000 300.00000000 300.00000000 300.00000000 300.00000000 300.00000000 322.04415502 342.30367363 361.32903871 380.38956576 398.22361066 414.56354019 429.20297146 441.82410109 452.31409129 460.73329063 467.15344989 471.52476787 473.74087700 473.74087700 471.52476787 467.15344989 460.73329063 452.31409129 441.82410109 429.20297146 414.56354019 398.22361066 380.38956576 361.32903871 342.30367363 322.04415502 300.00000000 300.00000000 300.00000000 300.00000000 300.00000000 300.00000000 300.00000000 300.00000000 300.00000000 300.00000000 300.00000000 300.00000000 300.00000000 300.00000000 300.00000000 317.98639775 332.00404769 349.52022999 365.22513225 379.89394082 393.37010365 404.93560228 414.48340023 422.24979829 428.43856948 432.82540603 435.08774680 435.08774680 432.82540603 428.43856948 422.24979829 414.48340023 404.93560228 393.37010365 379.89394082 365.22513225 349.52022999 332.00404769 317.98639775 300.00000000 300.00000000 300.00000000 300.00000000 300.00000000 300.00000000 300.00000000 300.00000000 300.00000000 300.00000000 300.00000000 300.00000000 300.00000000 300.00000000 300.00000000 300.00000000 300.00000000 300.00000000 320.40978622 332.65129849 345.60536824 357.94314814 367.94630705 375.88717357 382.53759347 388.62858377 393.29162334 395.71362702 395.71362702 393.29162334 388.62858377 382.53759347 375.88717357 367.94630705 357.94314814 345.60536824 332.65129849 320.40978622 300.00000000 300.00000000 300.00000000 300.00000000 300.00000000 300.00000000 300.00000000 300.00000000 300.00000000 300.00000000 300.00000000 300.00000000 300.00000000 300.00000000 300.00000000 300.00000000 300.00000000 300.00000000 300.00000000 300.00000000 300.00000000 300.00000000 314.36786823 325.47056214 332.57907305 337.63928559 342.30291149 349.48086918 355.22631952 357.99968408 357.99968408 355.22631952 349.48086918 342.30291149 337.63928559 332.57907305 325.47056214 314.36786823 300.00000000 300.00000000 300.00000000 300.00000000 300.00000000 300.00000000 300.00000000 300.00000000 300.00000000 300.00000000 300.00000000 300.00000000 300.00000000 300.00000000 300.00000000 300.00000000 300.00000000 300.00000000 300.00000000 300.00000000 300.00000000 300.00000000 300.00000000 300.00000000 300.00000000 300.00000000 300.00000000 300.00000000 300.00000000 314.48654937 322.26299478 325.10892186 325.10892186 322.26299478 314.48654937 300.00000000 300.00000000 300.00000000 300.00000000 300.00000000 300.00000000 300.00000000 300.00000000 300.00000000 300.00000000 300.00000000 300.00000000 300.00000000 300.00000000 300.00000000 300.00000000 300.00000000 300.00000000 300.00000000 300.00000000 300.00000000 300.00000000 300.00000000 300.00000000 300.00000000 300.00000000 300.00000000 300.00000000 300.00000000 300.00000000 300.00000000 300.00000000 300.00000000 300.00000000 300.00000000 300.00000000 300.00000000 300.00000000 300.00000000 300.00000000 300.00000000 300.00000000 300.00000000 300.00000000 300.00000000 300.00000000 300.00000000 300.00000000 300.00000000 300.00000000 300.00000000 300.00000000 300.00000000 300.00000000 300.00000000 300.00000000 300.00000000 300.00000000 300.00000000 300.00000000 300.00000000 300.00000000 300.00000000 300.00000000 300.00000000 300.00000000 300.00000000 300.00000000 300.00000000 300.00000000 300.00000000 300.00000000 300.00000000 300.00000000 300.00000000 300.00000000 300.00000000 300.00000000 300.00000000 300.00000000 300.00000000 300.00000000 300.00000000 300.00000000 300.00000000 300.00000000 300.00000000 300.00000000 300.00000000 300.00000000 300.00000000 300.00000000 300.00000000 300.00000000 300.00000000 300.00000000 300.00000000 300.00000000 300.00000000 300.00000000 300.00000000 300.00000000 300.00000000 300.00000000 300.00000000 300.00000000 300.00000000 300.00000000 300.00000000 300.00000000 300.00000000 300.00000000 300.00000000 300.00000000 300.00000000 300.00000000 300.00000000 300.00000000 300.00000000 300.00000000 300.00000000 300.00000000 300.00000000 300.00000000 300.00000000 300.00000000 300.00000000 300.00000000 300.00000000 300.00000000 300.00000000 300.00000000 300.00000000 300.00000000 300.00000000 300.00000000 300.00000000 300.00000000 300.00000000 300.00000000 300.00000000 300.00000000 300.00000000 300.00000000 300.00000000 300.00000000 300.00000000 300.00000000 300.00000000 300.00000000 300.00000000 300.00000000 300.00000000 300.00000000 300.00000000 300.00000000 300.00000000 300.00000000 300.00000000 300.00000000 300.00000000 300.00000000 300.00000000 300.00000000 300.00000000 300.00000000 300.00000000 300.00000000 300.00000000 300.00000000 300.00000000 300.00000000 300.00000000 300.00000000 300.00000000 300.00000000 300.00000000 300.00000000 300.00000000 300.00000000 300.00000000 300.00000000 300.00000000 300.00000000 300.00000000 300.00000000 300.00000000 300.00000000 300.00000000 300.00000000 300.00000000 300.00000000 300.00000000 300.00000000 300.00000000 300.00000000 300.00000000 300.00000000 300.00000000 300.00000000 300.00000000 300.00000000 300.00000000 300.00000000 300.00000000 300.00000000 300.00000000 300.00000000 300.00000000 300.00000000 300.00000000 300.00000000 300.00000000 300.00000000 300.00000000 300.00000000 300.00000000 300.00000000 300.00000000 300.00000000 300.00000000 300.00000000 300.00000000 300.00000000 300.00000000 300.00000000 300.00000000 300.00000000 300.00000000 300.00000000 300.00000000 300.00000000 300.00000000 300.00000000 300.00000000 300.00000000 300.00000000 300.00000000 300.00000000 300.00000000 300.00000000 300.00000000 300.00000000 300.00000000 300.00000000 300.00000000 300.00000000 300.00000000 300.00000000 300.00000000 300.00000000 300.00000000 300.00000000 300.00000000 300.00000000 300.00000000 300.00000000 300.00000000 300.00000000 300.00000000 300.00000000 300.00000000 300.00000000 300.00000000 300.00000000 300.00000000 300.00000000 300.00000000 300.00000000 300.00000000 300.00000000 300.00000000 300.00000000 300.00000000 300.00000000 300.00000000 300.00000000 300.00000000 300.00000000 300.00000000 300.00000000 300.00000000 300.00000000 300.00000000 300.00000000 300.00000000 300.00000000 300.00000000 300.00000000 300.00000000 300.00000000 300.00000000 300.00000000 300.00000000 300.00000000 300.00000000 300.00000000 300.00000000 300.00000000 300.00000000 300.00000000 300.00000000 300.00000000 300.00000000 300.00000000 300.00000000 300.00000000 300.00000000 300.00000000 300.00000000 300.00000000 300.00000000 300.00000000 300.00000000 300.00000000 300.00000000 300.00000000 300.00000000 300.00000000 300.00000000 300.00000000 300.00000000 300.00000000 300.00000000 300.00000000 300.00000000 300.00000000 300.00000000 300.00000000 300.00000000 300.00000000 300.00000000 300.00000000 300.00000000 300.00000000 300.00000000 300.00000000 