# vtk DataFile Version 3.0
VTK - Matlab export
ASCII
DATASET STRUCTURED_POINTS
DIMENSIONS 40 40 1
SPACING 1 1 1
ORIGIN 0 0 0
POINT_DATA 1600
SCALARS lambda-2 float 1
LOOKUP_TABLE default
7.22156776 7.22156776 7.22156776 7.22156776 7.22156776 7.22156776 7.22156776 7.22156776 7.22156776 7.22156776 7.22156776 7.22156776 7.22156776 7.22156776 7.22156776 7.22156776 7.22156776 7.22156776 7.22156776 7.22156776 7.22156776 7.22156776 7.22156776 7.22156776 7.22156776 7.22156776 7.22156776 7.22156776 7.22156776 7.22156776 7.22156776 7.22156776 7.22156776 7.22156776 7.22156776 7.22156776 7.22156776 7.22156776 7.22156776 7.22156776 7.22156776 7.22156776 7.22156776 7.22156776 7.22156776 7.22156776 7.22156776 7.22156776 7.22156776 7.22156776 7.22156776 7.22156776 7.22156776 7.22156776 7.22156776 7.22156776 7.22156776 7.22156776 7.22156776 7.22156776 7.22156776 7.22156776 7.22156776 7.22156776 7.22156776 7.22156776 7.22156776 7.22156776 7.22156776 7.22156776 7.22156776 7.22156776 7.22156776 7.22156776 7.22156776 7.22156776 7.22156776 7.22156776 7.22156776 7.22156776 7.22156776 7.22156776 7.22156776 7.22156776 7.22156776 7.22156776 7.22156776 7.22156776 7.22156776 7.22156776 7.22156776 7.22156776 7.22156776 7.22156776 7.22156776 7.22156776 7.22156776 7.22156776 7.22156776 7.22156776 7.22156776 7.22156776 7.22156776 7.22156776 7.22156776 7.22156776 7.22156776 7.22156776 7.22156776 7.22156776 7.22156776 7.22156776 7.22156776 7.22156776 7.22156776 7.22156776 7.22156776 7.22156776 7.22156776 7.22156776 7.22156776 7.22156776 7.22156776 7.22156776 7.22156776 7.22156776 7.22156776 7.22156776 7.22156776 7.22156776 7.22156776 7.22156776 7.22156776 7.22156776 7.22156776 7.22156776 7.22156776 7.22156776 7.22156776 7.22156776 7.22156776 7.22156776 7.22156776 7.22156776 7.22156776 7.22156776 7.22156776 7.22156776 7.22156776 7.22156776 7.22156776 7.22156776 7.22156776 7.22156776 7.22156776 7.22156776 7.22156776 7.22156776 7.22156776 7.22156776 7.22156776 7.22156776 7.22156776 7.22156776 7.22156776 7.22156776 7.22156776 7.22156776 7.22156776 7.22156776 7.22156776 7.22156776 7.22156776 7.22156776 7.22156776 7.22156776 7.22156776 7.22156776 7.22156776 7.22156776 7.22156776 7.22156776 7.22156776 7.22156776 7.22156776 7.22156776 7.22156776 7.22156776 7.22156776 7.22156776 7.22156776 7.22156776 7.22156776 7.22156776 7.22156776 7.22156776 7.22156776 7.22156776 7.22156776 7.22156776 7.22156776 7.22156776 7.22156776 7.22156776 7.22156776 7.22156776 7.22156776 7.22156776 7.22156776 7.22156776 7.22156776 7.22156776 7.22156776 7.22156776 7.22156776 7.22156776 7.22156776 7.22156776 7.22156776 7.22156776 7.22156776 7.22156776 7.22156776 7.22156776 7.22156776 7.22156776 7.22156776 7.22156776 7.22156776 7.22156776 7.22156776 7.22156776 7.22156776 7.22156776 7.22156776 7.22156776 7.22156776 7.22156776 7.22156776 7.22156776 7.22156776 7.22156776 7.22156776 7.22156776 7.22156776 7.22156776 7.22156776 7.22156776 7.22156776 7.22156776 7.22156776 7.22156776 7.22156776 7.22156776 7.22156776 7.22156776 7.22156776 7.22156776 7.22156776 7.22156776 7.22156776 7.22156776 7.22156776 7.22156776 7.22156776 7.22156776 7.22156776 7.22156776 7.22156776 7.22156776 7.22156776 7.22156776 7.22156776 7.22156776 7.22156776 7.22156776 7.22156776 7.22156776 7.22156776 7.22156776 7.22156776 7.22156776 7.22156776 7.22156776 7.22156776 7.22156776 7.22156776 7.22156776 7.22156776 7.22156776 7.22156776 7.22156776 7.22156776 7.22156776 7.22156776 7.22156776 7.22156776 7.22156776 7.22156776 7.22156776 7.22156776 7.22156776 7.22156776 7.22156776 7.22156776 7.22156776 7.22156776 7.22156776 7.22156776 7.22156776 7.22156776 7.22156776 7.22156776 7.22156776 7.22156776 7.22156776 7.22156776 7.22156776 7.22156776 7.22156776 7.22156776 7.22156776 7.22156776 7.22156776 7.22156776 7.22156776 7.22156776 7.22156776 7.22156776 7.22156776 7.22156776 7.22156776 7.22156776 7.22156776 7.22156776 7.22156776 7.22156776 7.21736444 7.21492217 7.21397250 7.21397250 7.21492217 7.21736444 7.22156776 7.22156776 7.22156776 7.22156776 7.22156776 7.22156776 7.22156776 7.22156776 7.22156776 7.22156776 7.22156776 7.22156776 7.22156776 7.22156776 7.22156776 7.22156776 7.22156776 7.22156776 7.22156776 7.22156776 7.22156776 7.22156776 7.22156776 7.22156776 7.22156776 7.22156776 7.22156776 7.22156776 7.22156776 7.21714286 7.21387187 7.21208518 7.21109018 7.21018917 7.20832198 7.20665998 7.20581819 7.20581819 7.20665998 7.20832198 7.21018917 7.21109018 7.21208518 7.21387187 7.21714286 7.22156776 7.22156776 7.22156776 7.22156776 7.22156776 7.22156776 7.22156776 7.22156776 7.22156776 7.22156776 7.22156776 7.22156776 7.22156776 7.22156776 7.22156776 7.22156776 7.22156776 7.22156776 7.22156776 7.22156776 7.22156776 7.22156776 7.21505462 7.21159958 7.20832308 7.20557816 7.20386967 7.20293487 7.20226637 7.20141412 7.20059114 7.20012148 7.20012148 7.20059114 7.20141412 7.20226637 7.20293487 7.20386967 7.20557816 7.20832308 7.21159958 7.21505462 7.22156776 7.22156776 7.22156776 7.22156776 7.22156776 7.22156776 7.22156776 7.22156776 7.22156776 7.22156776 7.22156776 7.22156776 7.22156776 7.22156776 7.22156776 7.22156776 7.22156776 7.22156776 7.21551776 7.21140736 7.20679652 7.20357855 7.20134297 7.19988455 7.19920189 7.19906384 7.19911645 7.19908378 7.19895605 7.19885409 7.19885409 7.19895605 7.19908378 7.19911645 7.19906384 7.19920189 7.19988455 7.20134297 7.20357855 7.20679652 7.21140736 7.21551776 7.22156776 7.22156776 7.22156776 7.22156776 7.22156776 7.22156776 7.22156776 7.22156776 7.22156776 7.22156776 7.22156776 7.22156776 7.22156776 7.22156776 7.22156776 7.21402328 7.20802914 7.20372988 7.20061837 7.19890635 7.19829133 7.19841002 7.19900671 7.19982662 7.20062027 7.20121539 7.20157147 7.20172998 7.20172998 7.20157147 7.20121539 7.20062027 7.19982662 7.19900671 7.19841002 7.19829133 7.19890635 7.20061837 7.20372988 7.20802914 7.21402328 7.22156776 7.22156776 7.22156776 7.22156776 7.22156776 7.22156776 7.22156776 7.22156776 7.22156776 7.22156776 7.22156776 7.22156776 7.21764859 7.21239356 7.20629103 7.20166021 7.19895633 7.19791266 7.19818274 7.19928651 7.20078375 7.20237098 7.20384556 7.20507150 7.20597689 7.20655377 7.20683001 7.20683001 7.20655377 7.20597689 7.20507150 7.20384556 7.20237098 7.20078375 7.19928651 7.19818274 7.19791266 7.19895633 7.20166021 7.20629103 7.21239356 7.21764859 7.22156776 7.22156776 7.22156776 7.22156776 7.22156776 7.22156776 7.22156776 7.22156776 7.22156776 7.22156776 7.21224251 7.20535952 7.20043770 7.19786674 7.19746039 7.19861525 7.20066636 7.20304040 7.20534281 7.20736375 7.20901932 7.21029212 7.21119852 7.21177217 7.21204824 7.21204824 7.21177217 7.21119852 7.21029212 7.20901932 7.20736375 7.20534281 7.20304040 7.20066636 7.19861525 7.19746039 7.19786674 7.20043770 7.20535952 7.21224251 7.22156776 7.22156776 7.22156776 7.22156776 7.22156776 7.22156776 7.22156776 7.22156776 7.22156776 7.21375508 7.20572997 7.19989806 7.19697443 7.19682670 7.19869694 7.20162982 7.20482847 7.20778496 7.21026193 7.21220970 7.21367432 7.21473190 7.21545574 7.21590468 7.21611903 7.21611903 7.21590468 7.21545574 7.21473190 7.21367432 7.21220970 7.21026193 7.20778496 7.20482847 7.20162982 7.19869694 7.19682670 7.19697443 7.19989806 7.20572997 7.21375508 7.22156776 7.22156776 7.22156776 7.22156776 7.22156776 7.22156776 7.22156776 7.21562225 7.20760995 7.20052092 7.19639469 7.19573410 7.19784777 7.20149578 7.20551969 7.20917067 7.21212458 7.21434631 7.21594155 7.21705338 7.21780963 7.21830582 7.21860570 7.21874704 7.21874704 7.21860570 7.21830582 7.21780963 7.21705338 7.21594155 7.21434631 7.21212458 7.20917067 7.20551969 7.20149578 7.19784777 7.19573410 7.19639469 7.20052092 7.20760995 7.21562225 7.22156776 7.22156776 7.22156776 7.22156776 7.22156776 7.22156776 7.21229862 7.20347044 7.19712853 7.19467174 7.19600173 7.19984612 7.20461605 7.20910693 7.21272695 7.21536891 7.21717763 7.21836971 7.21914015 7.21963255 7.21994094 7.22012173 7.22020555 7.22020555 7.22012173 7.21994094 7.21963255 7.21914015 7.21836971 7.21717763 7.21536891 7.21272695 7.20910693 7.20461605 7.19984612 7.19600173 7.19467174 7.19712853 7.20347044 7.21229862 7.22156776 7.22156776 7.22156776 7.22156776 7.22156776 7.22156776 7.21025788 7.20096565 7.19526998 7.19410773 7.19685121 7.20178630 7.20712496 7.21170596 7.21510670 7.21739629 7.21884209 7.21972211 7.22024994 7.22056604 7.22075419 7.22086072 7.22090916 7.22090916 7.22086072 7.22075419 7.22056604 7.22024994 7.21972211 7.21884209 7.21739629 7.21510670 7.21170596 7.20712496 7.20178630 7.19685121 7.19410773 7.19526998 7.20096565 7.21025788 7.22156776 7.22156776 7.22156776 7.22156776 7.22156776 7.21805727 7.20854693 7.19965397 7.19446390 7.19402616 7.19749293 7.20293612 7.20848901 7.21303952 7.21626938 7.21834298 7.21958688 7.22030392 7.22071103 7.22094273 7.22107495 7.22114759 7.22118006 7.22118006 7.22114759 7.22107495 7.22094273 7.22071103 7.22030392 7.21958688 7.21834298 7.21626938 7.21303952 7.20848901 7.20293612 7.19749293 7.19402616 7.19446390 7.19965397 7.20854693 7.21805727 7.22156776 7.22156776 7.22156776 7.22156776 7.21805727 7.20854693 7.19965397 7.19446390 7.19402616 7.19749293 7.20293612 7.20848901 7.21303952 7.21626938 7.21834298 7.21958688 7.22030392 7.22071103 7.22094273 7.22107495 7.22114759 7.22118006 7.22118006 7.22114759 7.22107495 7.22094273 7.22071103 7.22030392 7.21958688 7.21834298 7.21626938 7.21303952 7.20848901 7.20293612 7.19749293 7.19402616 7.19446390 7.19965397 7.20854693 7.21805727 7.22156776 7.22156776 7.22156776 7.22156776 7.22156776 7.21025788 7.20096565 7.19526998 7.19410773 7.19685121 7.20178630 7.20712496 7.21170596 7.21510670 7.21739629 7.21884209 7.21972211 7.22024994 7.22056604 7.22075419 7.22086072 7.22090916 7.22090916 7.22086072 7.22075419 7.22056604 7.22024994 7.21972211 7.21884209 7.21739629 7.21510670 7.21170596 7.20712496 7.20178630 7.19685121 7.19410773 7.19526998 7.20096565 7.21025788 7.22156776 7.22156776 7.22156776 7.22156776 7.22156776 7.22156776 7.21229862 7.20347044 7.19712853 7.19467174 7.19600173 7.19984612 7.20461605 7.20910693 7.21272695 7.21536891 7.21717763 7.21836971 7.21914015 7.21963255 7.21994094 7.22012173 7.22020555 7.22020555 7.22012173 7.21994094 7.21963255 7.21914015 7.21836971 7.21717763 7.21536891 7.21272695 7.20910693 7.20461605 7.19984612 7.19600173 7.19467174 7.19712853 7.20347044 7.21229862 7.22156776 7.22156776 7.22156776 7.22156776 7.22156776 7.22156776 7.21562225 7.20760995 7.20052092 7.19639469 7.19573410 7.19784777 7.20149578 7.20551969 7.20917067 7.21212458 7.21434631 7.21594155 7.21705338 7.21780963 7.21830582 7.21860570 7.21874704 7.21874704 7.21860570 7.21830582 7.21780963 7.21705338 7.21594155 7.21434631 7.21212458 7.20917067 7.20551969 7.20149578 7.19784777 7.19573410 7.19639469 7.20052092 7.20760995 7.21562225 7.22156776 7.22156776 7.22156776 7.22156776 7.22156776 7.22156776 7.22156776 7.21375508 7.20572997 7.19989806 7.19697443 7.19682670 7.19869694 7.20162982 7.20482847 7.20778496 7.21026193 7.21220970 7.21367432 7.21473190 7.21545574 7.21590468 7.21611903 7.21611903 7.21590468 7.21545574 7.21473190 7.21367432 7.21220970 7.21026193 7.20778496 7.20482847 7.20162982 7.19869694 7.19682670 7.19697443 7.19989806 7.20572997 7.21375508 7.22156776 7.22156776 7.22156776 7.22156776 7.22156776 7.22156776 7.22156776 7.22156776 7.22156776 7.21224251 7.20535952 7.20043770 7.19786674 7.19746039 7.19861525 7.20066636 7.20304040 7.20534281 7.20736375 7.20901932 7.21029212 7.21119852 7.21177217 7.21204824 7.21204824 7.21177217 7.21119852 7.21029212 7.20901932 7.20736375 7.20534281 7.20304040 7.20066636 7.19861525 7.19746039 7.19786674 7.20043770 7.20535952 7.21224251 7.22156776 7.22156776 7.22156776 7.22156776 7.22156776 7.22156776 7.22156776 7.22156776 7.22156776 7.22156776 7.21764859 7.21239356 7.20629103 7.20166021 7.19895633 7.19791266 7.19818274 7.19928651 7.20078375 7.20237098 7.20384556 7.20507150 7.20597689 7.20655377 7.20683001 7.20683001 7.20655377 7.20597689 7.20507150 7.20384556 7.20237098 7.20078375 7.19928651 7.19818274 7.19791266 7.19895633 7.20166021 7.20629103 7.21239356 7.21764859 7.22156776 7.22156776 7.22156776 7.22156776 7.22156776 7.22156776 7.22156776 7.22156776 7.22156776 7.22156776 7.22156776 7.22156776 7.21402328 7.20802914 7.20372988 7.20061837 7.19890635 7.19829133 7.19841002 7.19900671 7.19982662 7.20062027 7.20121539 7.20157147 7.20172998 7.20172998 7.20157147 7.20121539 7.20062027 7.19982662 7.19900671 7.19841002 7.19829133 7.19890635 7.20061837 7.20372988 7.20802914 7.21402328 7.22156776 7.22156776 7.22156776 7.22156776 7.22156776 7.22156776 7.22156776 7.22156776 7.22156776 7.22156776 7.22156776 7.22156776 7.22156776 7.22156776 7.22156776 7.21551776 7.21140736 7.20679652 7.20357855 7.20134297 7.19988455 7.19920189 7.19906384 7.19911645 7.19908378 7.19895605 7.19885409 7.19885409 7.19895605 7.19908378 7.19911645 7.19906384 7.19920189 7.19988455 7.20134297 7.20357855 7.20679652 7.21140736 7.21551776 7.22156776 7.22156776 7.22156776 7.22156776 7.22156776 7.22156776 7.22156776 7.22156776 7.22156776 7.22156776 7.22156776 7.22156776 7.22156776 7.22156776 7.22156776 7.22156776 7.22156776 7.22156776 7.21505462 7.21159958 7.20832308 7.20557816 7.20386967 7.20293487 7.20226637 7.20141412 7.20059114 7.20012148 7.20012148 7.20059114 7.20141412 7.20226637 7.20293487 7.20386967 7.20557816 7.20832308 7.21159958 7.21505462 7.22156776 7.22156776 7.22156776 7.22156776 7.22156776 7.22156776 7.22156776 7.22156776 7.22156776 7.22156776 7.22156776 7.22156776 7.22156776 7.22156776 7.22156776 7.22156776 7.22156776 7.22156776 7.22156776 7.22156776 7.22156776 7.22156776 7.21714286 7.21387187 7.21208518 7.21109018 7.21018917 7.20832198 7.20665998 7.20581819 7.20581819 7.20665998 7.20832198 7.21018917 7.21109018 7.21208518 7.21387187 7.21714286 7.22156776 7.22156776 7.22156776 7.22156776 7.22156776 7.22156776 7.22156776 7.22156776 7.22156776 7.22156776 7.22156776 7.22156776 7.22156776 7.22156776 7.22156776 7.22156776 7.22156776 7.22156776 7.22156776 7.22156776 7.22156776 7.22156776 7.22156776 7.22156776 7.22156776 7.22156776 7.22156776 7.22156776 7.22156776 7.21736444 7.21492217 7.21397250 7.21397250 7.21492217 7.21736444 7.22156776 7.22156776 7.22156776 7.22156776 7.22156776 7.22156776 7.22156776 7.22156776 7.22156776 7.22156776 7.22156776 7.22156776 7.22156776 7.22156776 7.22156776 7.22156776 7.22156776 7.22156776 7.22156776 7.22156776 7.22156776 7.22156776 7.22156776 7.22156776 7.22156776 7.22156776 7.22156776 7.22156776 7.22156776 7.22156776 7.22156776 7.22156776 7.22156776 7.22156776 7.22156776 7.22156776 7.22156776 7.22156776 7.22156776 7.22156776 7.22156776 7.22156776 7.22156776 7.22156776 7.22156776 7.22156776 7.22156776 7.22156776 7.22156776 7.22156776 7.22156776 7.22156776 7.22156776 7.22156776 7.22156776 7.22156776 7.22156776 7.22156776 7.22156776 7.22156776 7.22156776 7.22156776 7.22156776 7.22156776 7.22156776 7.22156776 7.22156776 7.22156776 7.22156776 7.22156776 7.22156776 7.22156776 7.22156776 7.22156776 7.22156776 7.22156776 7.22156776 7.22156776 7.22156776 7.22156776 7.22156776 7.22156776 7.22156776 7.22156776 7.22156776 7.22156776 7.22156776 7.22156776 7.22156776 7.22156776 7.22156776 7.22156776 7.22156776 7.22156776 7.22156776 7.22156776 7.22156776 7.22156776 7.22156776 7.22156776 7.22156776 7.22156776 7.22156776 7.22156776 7.22156776 7.22156776 7.22156776 7.22156776 7.22156776 7.22156776 7.22156776 7.22156776 7.22156776 7.22156776 7.22156776 7.22156776 7.22156776 7.22156776 7.22156776 7.22156776 7.22156776 7.22156776 7.22156776 7.22156776 7.22156776 7.22156776 7.22156776 7.22156776 7.22156776 7.22156776 7.22156776 7.22156776 7.22156776 7.22156776 7.22156776 7.22156776 7.22156776 7.22156776 7.22156776 7.22156776 7.22156776 7.22156776 7.22156776 7.22156776 7.22156776 7.22156776 7.22156776 7.22156776 7.22156776 7.22156776 7.22156776 7.22156776 7.22156776 7.22156776 7.22156776 7.22156776 7.22156776 7.22156776 7.22156776 7.22156776 7.22156776 7.22156776 7.22156776 7.22156776 7.22156776 7.22156776 7.22156776 7.22156776 7.22156776 7.22156776 7.22156776 7.22156776 7.22156776 7.22156776 7.22156776 7.22156776 7.22156776 7.22156776 7.22156776 7.22156776 7.22156776 7.22156776 7.22156776 7.22156776 7.22156776 7.22156776 7.22156776 7.22156776 7.22156776 7.22156776 7.22156776 7.22156776 7.22156776 7.22156776 7.22156776 7.22156776 7.22156776 7.22156776 7.22156776 7.22156776 7.22156776 7.22156776 7.22156776 7.22156776 7.22156776 7.22156776 7.22156776 7.22156776 7.22156776 7.22156776 7.22156776 7.22156776 7.22156776 7.22156776 7.22156776 7.22156776 7.22156776 7.22156776 7.22156776 7.22156776 7.22156776 7.22156776 7.22156776 7.22156776 7.22156776 7.22156776 7.22156776 7.22156776 7.22156776 7.22156776 7.22156776 7.22156776 7.22156776 7.22156776 7.22156776 7.22156776 7.22156776 7.22156776 7.22156776 7.22156776 7.22156776 7.22156776 7.22156776 7.22156776 7.22156776 7.22156776 7.22156776 7.22156776 7.22156776 7.22156776 7.22156776 7.22156776 7.22156776 7.22156776 7.22156776 7.22156776 7.22156776 7.22156776 7.22156776 7.22156776 7.22156776 7.22156776 7.22156776 7.22156776 7.22156776 7.22156776 7.22156776 7.22156776 7.22156776 7.22156776 7.22156776 7.22156776 7.22156776 7.22156776 7.22156776 7.22156776 7.22156776 7.22156776 7.22156776 7.22156776 7.22156776 7.22156776 7.22156776 7.22156776 7.22156776 7.22156776 7.22156776 7.22156776 7.22156776 7.22156776 7.22156776 7.22156776 7.22156776 7.22156776 7.22156776 7.22156776 7.22156776 7.22156776 7.22156776 7.22156776 7.22156776 7.22156776 7.22156776 7.22156776 7.22156776 7.22156776 7.22156776 7.22156776 7.22156776 7.22156776 7.22156776 7.22156776 7.22156776 7.22156776 7.22156776 7.22156776 7.22156776 7.22156776 7.22156776 7.22156776 7.22156776 7.22156776 7.22156776 7.22156776 7.22156776 7.22156776 7.22156776 7.22156776 7.22156776 7.22156776 7.22156776 7.22156776 7.22156776 7.22156776 7.22156776 7.22156776 7.22156776 