# vtk DataFile Version 3.0
VTK - Matlab export
ASCII
DATASET STRUCTURED_POINTS
DIMENSIONS 40 40 1
SPACING 1 1 1
ORIGIN 0 0 0
POINT_DATA 1600
SCALARS Proofstrength float 1
LOOKUP_TABLE default
142.25514280 142.25514280 142.25514280 142.25514280 142.25514280 142.25514280 142.25514280 142.25514280 142.25514280 142.25514280 142.25514280 142.25514280 142.25514280 142.25514280 142.25514280 142.25514280 142.25514280 142.25514280 142.25514280 142.25514280 142.25514280 142.25514280 142.25514280 142.25514280 142.25514280 142.25514280 142.25514280 142.25514280 142.25514280 142.25514280 142.25514280 142.25514280 142.25514280 142.25514280 142.25514280 142.25514280 142.25514280 142.25514280 142.25514280 142.25514280 142.25514280 142.25514280 142.25514280 142.25514280 142.25514280 142.25514280 142.25514280 142.25514280 142.25514280 142.25514280 142.25514280 142.25514280 142.25514280 142.25514280 142.25514280 142.25514280 142.25514280 142.25514280 142.25514280 142.25514280 142.25514280 142.25514280 142.25514280 142.25514280 142.25514280 142.25514280 142.25514280 142.25514280 142.25514280 142.25514280 142.25514280 142.25514280 142.25514280 142.25514280 142.25514280 142.25514280 142.25514280 142.25514280 142.25514280 142.25514280 142.25514280 142.25514280 142.25514280 142.25514280 142.25514280 142.25514280 142.25514280 142.25514280 142.25514280 142.25514280 142.25514280 142.25514280 142.25514280 142.25514280 142.25514280 142.25514280 142.25514280 142.25514280 142.25514280 142.25514280 142.25514280 142.25514280 142.25514280 142.25514280 142.25514280 142.25514280 142.25514280 142.25514280 142.25514280 142.25514280 142.25514280 142.25514280 142.25514280 142.25514280 142.25514280 142.25514280 142.25514280 142.25514280 142.25514280 142.25514280 142.25514280 142.25514280 142.25514280 142.25514280 142.25514280 142.25514280 142.25514280 142.25514280 142.25514280 142.25514280 142.25514280 142.25514280 142.25514280 142.25514280 142.25514280 142.25514280 142.25514280 142.25514280 142.25514280 142.25514280 142.25514280 142.25514280 142.25514280 142.25514280 142.25514280 142.25514280 142.25514280 142.25514280 142.25514280 142.25514280 142.25514280 142.25514280 142.25514280 142.25514280 142.25514280 142.25514280 142.25514280 142.25514280 142.25514280 142.25514280 142.25514280 142.25514280 142.25514280 142.25514280 142.25514280 142.25514280 142.25514280 142.25514280 142.25514280 142.25514280 142.25514280 142.25514280 142.25514280 142.25514280 142.25514280 142.25514280 142.25514280 142.25514280 142.25514280 142.25514280 142.25514280 142.25514280 142.25514280 142.25514280 142.25514280 142.25514280 142.25514280 142.25514280 142.25514280 142.25514280 142.25514280 142.25514280 142.25514280 142.25514280 142.25514280 142.25514280 142.25514280 142.25514280 142.25514280 142.25514280 142.25514280 142.25514280 142.25514280 142.25514280 142.25514280 142.25514280 142.25514280 142.25514280 142.25514280 142.25514280 142.25514280 142.25514280 142.25514280 142.25514280 142.25514280 142.25514280 142.25514280 142.25514280 142.25514280 142.25514280 142.25514280 142.25514280 142.25514280 142.25514280 142.25514280 142.25514280 142.25514280 142.25514280 142.25514280 142.25514280 142.25514280 142.25514280 142.25514280 142.25514280 142.25514280 142.25514280 142.25514280 142.25514280 142.25514280 142.25514280 142.25514280 142.25514280 142.25514280 142.25514280 142.25514280 142.25514280 142.25514280 142.25514280 142.25514280 142.25514280 142.25514280 142.25514280 142.25514280 142.25514280 142.25514280 142.25514280 142.25514280 142.25514280 142.25514280 142.25514280 142.25514280 142.25514280 142.25514280 142.25514280 142.25514280 142.25514280 142.25514280 142.25514280 142.25514280 142.25514280 142.25514280 142.25514280 142.25514280 142.25514280 142.25514280 142.25514280 142.25514280 142.25514280 142.25514280 142.25514280 142.25514280 142.25514280 142.25514280 142.25514280 142.25514280 142.25514280 142.25514280 142.25514280 142.25514280 142.25514280 142.25514280 142.25514280 142.25514280 142.25514280 142.25514280 142.25514280 142.25514280 142.25514280 142.25514280 142.25514280 142.25514280 142.25514280 142.25514280 142.25514280 142.25514280 142.25514280 142.25514280 142.25514280 142.25514280 142.25514280 142.25514280 142.25514280 142.25514280 142.25514280 142.25514280 142.25514280 142.25514280 142.25514280 142.25514280 142.25514280 142.25514280 142.25514280 142.25514280 142.25514280 142.25514280 142.25514280 142.25514280 142.25514280 142.25514280 142.25514280 142.25514280 142.25514280 142.25514280 142.25514280 142.25514280 142.25514280 142.25514280 142.25655867 142.25732236 142.25760190 142.25760190 142.25732236 142.25655867 142.25514280 142.25514280 142.25514280 142.25514280 142.25514280 142.25514280 142.25514280 142.25514280 142.25514280 142.25514280 142.25514280 142.25514280 142.25514280 142.25514280 142.25514280 142.25514280 142.25514280 142.25514280 142.25514280 142.25514280 142.25514280 142.25514280 142.25514280 142.25514280 142.25514280 142.25514280 142.25514280 142.25514280 142.25514280 142.25663848 142.25775442 142.25842562 142.25886842 142.25926793 142.25992876 142.26046519 142.26072347 142.26072347 142.26046519 142.25992876 142.25926793 142.25886842 142.25842562 142.25775442 142.25663848 142.25514280 142.25514280 142.25514280 142.25514280 142.25514280 142.25514280 142.25514280 142.25514280 142.25514280 142.25514280 142.25514280 142.25514280 142.25514280 142.25514280 142.25514280 142.25514280 142.25514280 142.25514280 142.25514280 142.25514280 142.25514280 142.25514280 142.25736798 142.25862333 142.25988445 142.26102562 142.26188360 142.26251033 142.26301184 142.26348530 142.26385695 142.26405068 142.26405068 142.26385695 142.26348530 142.26301184 142.26251033 142.26188360 142.26102562 142.25988445 142.25862333 142.25736798 142.25514280 142.25514280 142.25514280 142.25514280 142.25514280 142.25514280 142.25514280 142.25514280 142.25514280 142.25514280 142.25514280 142.25514280 142.25514280 142.25514280 142.25514280 142.25514280 142.25514280 142.25514280 142.25721924 142.25874070 142.26054704 142.26204020 142.26332069 142.26440167 142.26524098 142.26586436 142.26633298 142.26669860 142.26695937 142.26709416 142.26709416 142.26695937 142.26669860 142.26633298 142.26586436 142.26524098 142.26440167 142.26332069 142.26204020 142.26054704 142.25874070 142.25721924 142.25514280 142.25514280 142.25514280 142.25514280 142.25514280 142.25514280 142.25514280 142.25514280 142.25514280 142.25514280 142.25514280 142.25514280 142.25514280 142.25514280 142.25514280 142.25777567 142.26005716 142.26202722 142.26382848 142.26533290 142.26654478 142.26749037 142.26818935 142.26868291 142.26902536 142.26926280 142.26941719 142.26949380 142.26949380 142.26941719 142.26926280 142.26902536 142.26868291 142.26818935 142.26749037 142.26654478 142.26533290 142.26382848 142.26202722 142.26005716 142.25777567 142.25514280 142.25514280 142.25514280 142.25514280 142.25514280 142.25514280 142.25514280 142.25514280 142.25514280 142.25514280 142.25514280 142.25514280 142.25641840 142.25829085 142.26074655 142.26309978 142.26517086 142.26691795 142.26829750 142.26932263 142.27003877 142.27050208 142.27077631 142.27092492 142.27099998 142.27103549 142.27104944 142.27104944 142.27103549 142.27099998 142.27092492 142.27077631 142.27050208 142.27003877 142.26932263 142.26829750 142.26691795 142.26517086 142.26309978 142.26074655 142.25829085 142.25641840 142.25514280 142.25514280 142.25514280 142.25514280 142.25514280 142.25514280 142.25514280 142.25514280 142.25514280 142.25514280 142.25823469 142.26095326 142.26359869 142.26600122 142.26802910 142.26962169 142.27076808 142.27150816 142.27191494 142.27207445 142.27207289 142.27198692 142.27187677 142.27178362 142.27173162 142.27173162 142.27178362 142.27187677 142.27198692 142.27207289 142.27207445 142.27191494 142.27150816 142.27076808 142.26962169 142.26802910 142.26600122 142.26359869 142.26095326 142.25823469 142.25514280 142.25514280 142.25514280 142.25514280 142.25514280 142.25514280 142.25514280 142.25514280 142.25514280 142.25758703 142.26051500 142.26344437 142.26618794 142.26856790 142.27046188 142.27182056 142.27266164 142.27305674 142.27310966 142.27293384 142.27263559 142.27230373 142.27200501 142.27178431 142.27166800 142.27166800 142.27178431 142.27200501 142.27230373 142.27263559 142.27293384 142.27310966 142.27305674 142.27266164 142.27182056 142.27046188 142.26856790 142.26618794 142.26344437 142.26051500 142.25758703 142.25514280 142.25514280 142.25514280 142.25514280 142.25514280 142.25514280 142.25514280 142.25687528 142.25951401 142.26255736 142.26560417 142.26837821 142.27067915 142.27238860 142.27347529 142.27398585 142.27402397 142.27372324 142.27322130 142.27264095 142.27208014 142.27160932 142.27127420 142.27110087 142.27110087 142.27127420 142.27160932 142.27208014 142.27264095 142.27322130 142.27372324 142.27402397 142.27398585 142.27347529 142.27238860 142.27067915 142.26837821 142.26560417 142.26255736 142.25951401 142.25687528 142.25514280 142.25514280 142.25514280 142.25514280 142.25514280 142.25514280 142.25785420 142.26091455 142.26415971 142.26730174 142.27007272 142.27227190 142.27378997 142.27461515 142.27482086 142.27453929 142.27392948 142.27314842 142.27233115 142.27158135 142.27097071 142.27054385 142.27032519 142.27032519 142.27054385 142.27097071 142.27158135 142.27233115 142.27314842 142.27392948 142.27453929 142.27482086 142.27461515 142.27378997 142.27227190 142.27007272 142.26730174 142.26415971 142.26091455 142.25785420 142.25514280 142.25514280 142.25514280 142.25514280 142.25514280 142.25514280 142.25848175 142.26185280 142.26525726 142.26846394 142.27121900 142.27332733 142.27468943 142.27530989 142.27528289 142.27476198 142.27392464 142.27294128 142.27195472 142.27107170 142.27036370 142.26987360 142.26962390 142.26962390 142.26987360 142.27036370 142.27107170 142.27195472 142.27294128 142.27392464 142.27476198 142.27528289 142.27530989 142.27468943 142.27332733 142.27121900 142.26846394 142.26525726 142.26185280 142.25848175 142.25514280 142.25514280 142.25514280 142.25514280 142.25514280 142.25613424 142.25899019 142.26236442 142.26582184 142.26905428 142.27179552 142.27385067 142.27512554 142.27563390 142.27548125 142.27483256 142.27387498 142.27278571 142.27171135 142.27075983 142.27000217 142.26948001 142.26921466 142.26921466 142.26948001 142.27000217 142.27075983 142.27171135 142.27278571 142.27387498 142.27483256 142.27548125 142.27563390 142.27512554 142.27385067 142.27179552 142.26905428 142.26582184 142.26236442 142.25899019 142.25613424 142.25514280 142.25514280 142.25514280 142.25514280 142.25613424 142.25899019 142.26236442 142.26582184 142.26905428 142.27179552 142.27385067 142.27512554 142.27563390 142.27548125 142.27483256 142.27387498 142.27278571 142.27171135 142.27075983 142.27000217 142.26948001 142.26921466 142.26921466 142.26948001 142.27000217 142.27075983 142.27171135 142.27278571 142.27387498 142.27483256 142.27548125 142.27563390 142.27512554 142.27385067 142.27179552 142.26905428 142.26582184 142.26236442 142.25899019 142.25613424 142.25514280 142.25514280 142.25514280 142.25514280 142.25514280 142.25848175 142.26185280 142.26525726 142.26846394 142.27121900 142.27332733 142.27468943 142.27530989 142.27528289 142.27476198 142.27392464 142.27294128 142.27195472 142.27107170 142.27036370 142.26987360 142.26962390 142.26962390 142.26987360 142.27036370 142.27107170 142.27195472 142.27294128 142.27392464 142.27476198 142.27528289 142.27530989 142.27468943 142.27332733 142.27121900 142.26846394 142.26525726 142.26185280 142.25848175 142.25514280 142.25514280 142.25514280 142.25514280 142.25514280 142.25514280 142.25785420 142.26091455 142.26415971 142.26730174 142.27007272 142.27227190 142.27378997 142.27461515 142.27482086 142.27453929 142.27392948 142.27314842 142.27233115 142.27158135 142.27097071 142.27054385 142.27032519 142.27032519 142.27054385 142.27097071 142.27158135 142.27233115 142.27314842 142.27392948 142.27453929 142.27482086 142.27461515 142.27378997 142.27227190 142.27007272 142.26730174 142.26415971 142.26091455 142.25785420 142.25514280 142.25514280 142.25514280 142.25514280 142.25514280 142.25514280 142.25687528 142.25951401 142.26255736 142.26560417 142.26837821 142.27067915 142.27238860 142.27347529 142.27398585 142.27402397 142.27372324 142.27322130 142.27264095 142.27208014 142.27160932 142.27127420 142.27110087 142.27110087 142.27127420 142.27160932 142.27208014 142.27264095 142.27322130 142.27372324 142.27402397 142.27398585 142.27347529 142.27238860 142.27067915 142.26837821 142.26560417 142.26255736 142.25951401 142.25687528 142.25514280 142.25514280 142.25514280 142.25514280 142.25514280 142.25514280 142.25514280 142.25758703 142.26051500 142.26344437 142.26618794 142.26856790 142.27046188 142.27182056 142.27266164 142.27305674 142.27310966 142.27293384 142.27263559 142.27230373 142.27200501 142.27178431 142.27166800 142.27166800 142.27178431 142.27200501 142.27230373 142.27263559 142.27293384 142.27310966 142.27305674 142.27266164 142.27182056 142.27046188 142.26856790 142.26618794 142.26344437 142.26051500 142.25758703 142.25514280 142.25514280 142.25514280 142.25514280 142.25514280 142.25514280 142.25514280 142.25514280 142.25514280 142.25823469 142.26095326 142.26359869 142.26600122 142.26802910 142.26962169 142.27076808 142.27150816 142.27191494 142.27207445 142.27207289 142.27198692 142.27187677 142.27178362 142.27173162 142.27173162 142.27178362 142.27187677 142.27198692 142.27207289 142.27207445 142.27191494 142.27150816 142.27076808 142.26962169 142.26802910 142.26600122 142.26359869 142.26095326 142.25823469 142.25514280 142.25514280 142.25514280 142.25514280 142.25514280 142.25514280 142.25514280 142.25514280 142.25514280 142.25514280 142.25641840 142.25829085 142.26074655 142.26309978 142.26517086 142.26691795 142.26829750 142.26932263 142.27003877 142.27050208 142.27077631 142.27092492 142.27099998 142.27103549 142.27104944 142.27104944 142.27103549 142.27099998 142.27092492 142.27077631 142.27050208 142.27003877 142.26932263 142.26829750 142.26691795 142.26517086 142.26309978 142.26074655 142.25829085 142.25641840 142.25514280 142.25514280 142.25514280 142.25514280 142.25514280 142.25514280 142.25514280 142.25514280 142.25514280 142.25514280 142.25514280 142.25514280 142.25777567 142.26005716 142.26202722 142.26382848 142.26533290 142.26654478 142.26749037 142.26818935 142.26868291 142.26902536 142.26926280 142.26941719 142.26949380 142.26949380 142.26941719 142.26926280 142.26902536 142.26868291 142.26818935 142.26749037 142.26654478 142.26533290 142.26382848 142.26202722 142.26005716 142.25777567 142.25514280 142.25514280 142.25514280 142.25514280 142.25514280 142.25514280 142.25514280 142.25514280 142.25514280 142.25514280 142.25514280 142.25514280 142.25514280 142.25514280 142.25514280 142.25721924 142.25874070 142.26054704 142.26204020 142.26332069 142.26440167 142.26524098 142.26586436 142.26633298 142.26669860 142.26695937 142.26709416 142.26709416 142.26695937 142.26669860 142.26633298 142.26586436 142.26524098 142.26440167 142.26332069 142.26204020 142.26054704 142.25874070 142.25721924 142.25514280 142.25514280 142.25514280 142.25514280 142.25514280 142.25514280 142.25514280 142.25514280 142.25514280 142.25514280 142.25514280 142.25514280 142.25514280 142.25514280 142.25514280 142.25514280 142.25514280 142.25514280 142.25736798 142.25862333 142.25988445 142.26102562 142.26188360 142.26251033 142.26301184 142.26348530 142.26385695 142.26405068 142.26405068 142.26385695 142.26348530 142.26301184 142.26251033 142.26188360 142.26102562 142.25988445 142.25862333 142.25736798 142.25514280 142.25514280 142.25514280 142.25514280 142.25514280 142.25514280 142.25514280 142.25514280 142.25514280 142.25514280 142.25514280 142.25514280 142.25514280 142.25514280 142.25514280 142.25514280 142.25514280 142.25514280 142.25514280 142.25514280 142.25514280 142.25514280 142.25663848 142.25775442 142.25842562 142.25886842 142.25926793 142.25992876 142.26046519 142.26072347 142.26072347 142.26046519 142.25992876 142.25926793 142.25886842 142.25842562 142.25775442 142.25663848 142.25514280 142.25514280 142.25514280 142.25514280 142.25514280 142.25514280 142.25514280 142.25514280 142.25514280 142.25514280 142.25514280 142.25514280 142.25514280 142.25514280 142.25514280 142.25514280 142.25514280 142.25514280 142.25514280 142.25514280 142.25514280 142.25514280 142.25514280 142.25514280 142.25514280 142.25514280 142.25514280 142.25514280 142.25514280 142.25655867 142.25732236 142.25760190 142.25760190 142.25732236 142.25655867 142.25514280 142.25514280 142.25514280 142.25514280 142.25514280 142.25514280 142.25514280 142.25514280 142.25514280 142.25514280 142.25514280 142.25514280 142.25514280 142.25514280 142.25514280 142.25514280 142.25514280 142.25514280 142.25514280 142.25514280 142.25514280 142.25514280 142.25514280 142.25514280 142.25514280 142.25514280 142.25514280 142.25514280 142.25514280 142.25514280 142.25514280 142.25514280 142.25514280 142.25514280 142.25514280 142.25514280 142.25514280 142.25514280 142.25514280 142.25514280 142.25514280 142.25514280 142.25514280 142.25514280 142.25514280 142.25514280 142.25514280 142.25514280 142.25514280 142.25514280 142.25514280 142.25514280 142.25514280 142.25514280 142.25514280 142.25514280 142.25514280 142.25514280 142.25514280 142.25514280 142.25514280 142.25514280 142.25514280 142.25514280 142.25514280 142.25514280 142.25514280 142.25514280 142.25514280 142.25514280 142.25514280 142.25514280 142.25514280 142.25514280 142.25514280 142.25514280 142.25514280 142.25514280 142.25514280 142.25514280 142.25514280 142.25514280 142.25514280 142.25514280 142.25514280 142.25514280 142.25514280 142.25514280 142.25514280 142.25514280 142.25514280 142.25514280 142.25514280 142.25514280 142.25514280 142.25514280 142.25514280 142.25514280 142.25514280 142.25514280 142.25514280 142.25514280 142.25514280 142.25514280 142.25514280 142.25514280 142.25514280 142.25514280 142.25514280 142.25514280 142.25514280 142.25514280 142.25514280 142.25514280 142.25514280 142.25514280 142.25514280 142.25514280 142.25514280 142.25514280 142.25514280 142.25514280 142.25514280 142.25514280 142.25514280 142.25514280 142.25514280 142.25514280 142.25514280 142.25514280 142.25514280 142.25514280 142.25514280 142.25514280 142.25514280 142.25514280 142.25514280 142.25514280 142.25514280 142.25514280 142.25514280 142.25514280 142.25514280 142.25514280 142.25514280 142.25514280 142.25514280 142.25514280 142.25514280 142.25514280 142.25514280 142.25514280 142.25514280 142.25514280 142.25514280 142.25514280 142.25514280 142.25514280 142.25514280 142.25514280 142.25514280 142.25514280 142.25514280 142.25514280 142.25514280 142.25514280 142.25514280 142.25514280 142.25514280 142.25514280 142.25514280 142.25514280 142.25514280 142.25514280 142.25514280 142.25514280 142.25514280 142.25514280 142.25514280 142.25514280 142.25514280 142.25514280 142.25514280 142.25514280 142.25514280 142.25514280 142.25514280 142.25514280 142.25514280 142.25514280 142.25514280 142.25514280 142.25514280 142.25514280 142.25514280 142.25514280 142.25514280 142.25514280 142.25514280 142.25514280 142.25514280 142.25514280 142.25514280 142.25514280 142.25514280 142.25514280 142.25514280 142.25514280 142.25514280 142.25514280 142.25514280 142.25514280 142.25514280 142.25514280 142.25514280 142.25514280 142.25514280 142.25514280 142.25514280 142.25514280 142.25514280 142.25514280 142.25514280 142.25514280 142.25514280 142.25514280 142.25514280 142.25514280 142.25514280 142.25514280 142.25514280 142.25514280 142.25514280 142.25514280 142.25514280 142.25514280 142.25514280 142.25514280 142.25514280 142.25514280 142.25514280 142.25514280 142.25514280 142.25514280 142.25514280 142.25514280 142.25514280 142.25514280 142.25514280 142.25514280 142.25514280 142.25514280 142.25514280 142.25514280 142.25514280 142.25514280 142.25514280 142.25514280 142.25514280 142.25514280 142.25514280 142.25514280 142.25514280 142.25514280 142.25514280 142.25514280 142.25514280 142.25514280 142.25514280 142.25514280 142.25514280 142.25514280 142.25514280 142.25514280 142.25514280 142.25514280 142.25514280 142.25514280 142.25514280 142.25514280 142.25514280 142.25514280 142.25514280 142.25514280 142.25514280 142.25514280 142.25514280 142.25514280 142.25514280 142.25514280 142.25514280 142.25514280 142.25514280 142.25514280 142.25514280 142.25514280 142.25514280 142.25514280 142.25514280 142.25514280 142.25514280 142.25514280 142.25514280 142.25514280 142.25514280 142.25514280 142.25514280 142.25514280 142.25514280 142.25514280 142.25514280 142.25514280 142.25514280 142.25514280 142.25514280 142.25514280 142.25514280 142.25514280 142.25514280 142.25514280 142.25514280 142.25514280 142.25514280 142.25514280 142.25514280 142.25514280 142.25514280 142.25514280 142.25514280 142.25514280 142.25514280 142.25514280 142.25514280 142.25514280 142.25514280 142.25514280 142.25514280 