# vtk DataFile Version 3.0
VTK - Matlab export
ASCII
DATASET STRUCTURED_POINTS
DIMENSIONS 40 40 1
SPACING 1 1 1
ORIGIN 0 0 0
POINT_DATA 1600
SCALARS Temperature float 1
LOOKUP_TABLE default
300.00000000 300.00000000 300.00000000 300.00000000 300.00000000 300.00000000 300.00000000 300.00000000 300.00000000 300.00000000 300.00000000 300.00000000 300.00000000 300.00000000 300.00000000 300.00000000 300.00000000 300.00000000 300.00000000 300.00000000 300.00000000 300.00000000 300.00000000 300.00000000 300.00000000 300.00000000 300.00000000 300.00000000 300.00000000 300.00000000 300.00000000 300.00000000 300.00000000 300.00000000 300.00000000 300.00000000 300.00000000 300.00000000 300.00000000 300.00000000 300.00000000 300.00000000 300.00000000 300.00000000 300.00000000 300.00000000 300.00000000 300.00000000 300.00000000 300.00000000 300.00000000 300.00000000 300.00000000 300.00000000 300.00000000 300.00000000 300.00000000 300.00000000 300.00000000 300.00000000 300.00000000 300.00000000 300.00000000 300.00000000 300.00000000 300.00000000 300.00000000 300.00000000 300.00000000 300.00000000 300.00000000 300.00000000 300.00000000 300.00000000 300.00000000 300.00000000 300.00000000 300.00000000 300.00000000 300.00000000 300.00000000 300.00000000 300.00000000 300.00000000 300.00000000 300.00000000 300.00000000 300.00000000 300.00000000 300.00000000 300.00000000 300.00000000 300.00000000 300.00000000 300.00000000 300.00000000 300.00000000 300.00000000 300.00000000 300.00000000 300.00000000 300.00000000 300.00000000 300.00000000 300.00000000 300.00000000 300.00000000 300.00000000 300.00000000 300.00000000 300.00000000 300.00000000 300.00000000 300.00000000 300.00000000 300.00000000 300.00000000 300.00000000 300.00000000 300.00000000 300.00000000 300.00000000 300.00000000 300.00000000 300.00000000 300.00000000 300.00000000 300.00000000 300.00000000 300.00000000 300.00000000 300.00000000 300.00000000 300.00000000 300.00000000 300.00000000 300.00000000 300.00000000 300.00000000 300.00000000 300.00000000 300.00000000 300.00000000 300.00000000 300.00000000 300.00000000 300.00000000 300.00000000 300.00000000 300.00000000 300.00000000 300.00000000 300.00000000 300.00000000 300.00000000 300.00000000 300.00000000 300.00000000 300.00000000 300.00000000 300.00000000 300.00000000 300.00000000 300.00000000 300.00000000 300.00000000 300.00000000 300.00000000 300.00000000 300.00000000 300.00000000 300.00000000 300.00000000 300.00000000 300.00000000 300.00000000 300.00000000 300.00000000 300.00000000 300.00000000 300.00000000 300.00000000 300.00000000 300.00000000 300.00000000 300.00000000 300.00000000 300.00000000 300.00000000 300.00000000 300.00000000 300.00000000 300.00000000 300.00000000 300.00000000 300.00000000 300.00000000 300.00000000 300.00000000 300.00000000 300.00000000 300.00000000 300.00000000 300.00000000 300.00000000 300.00000000 300.00000000 300.00000000 300.00000000 300.00000000 300.00000000 300.00000000 300.00000000 300.00000000 300.00000000 300.00000000 300.00000000 300.00000000 300.00000000 300.00000000 300.00000000 300.00000000 300.00000000 300.00000000 300.00000000 300.00000000 300.00000000 300.00000000 300.00000000 300.00000000 300.00000000 300.00000000 300.00000000 300.00000000 300.00000000 300.00000000 300.00000000 300.00000000 300.00000000 300.00000000 300.00000000 300.00000000 300.00000000 300.00000000 300.00000000 300.00000000 300.00000000 300.00000000 300.00000000 300.00000000 300.00000000 300.00000000 300.00000000 300.00000000 300.00000000 300.00000000 300.00000000 300.00000000 300.00000000 300.00000000 300.00000000 300.00000000 300.00000000 300.00000000 300.00000000 300.00000000 300.00000000 300.00000000 300.00000000 300.00000000 300.00000000 300.00000000 300.00000000 300.00000000 300.00000000 300.00000000 300.00000000 300.00000000 300.00000000 300.00000000 300.00000000 300.00000000 300.00000000 300.00000000 300.00000000 300.00000000 300.00000000 300.00000000 300.00000000 300.00000000 300.00000000 300.00000000 300.00000000 300.00000000 300.00000000 300.00000000 300.00000000 300.00000000 300.00000000 300.00000000 300.00000000 300.00000000 300.00000000 300.00000000 300.00000000 300.00000000 300.00000000 300.00000000 300.00000000 300.00000000 300.00000000 300.00000000 300.00000000 300.00000000 300.00000000 300.00000000 300.00000000 300.00000000 300.00000000 300.00000000 300.00000000 300.00000000 300.00000000 300.00000000 300.00000000 300.00000000 300.00000000 300.00000000 300.00000000 300.00000000 300.00000000 300.00000000 300.00000000 300.00000000 300.00000000 300.00000000 300.00000000 406.09735585 473.65664358 498.03447223 498.03447223 473.65664358 406.09735585 300.00000000 300.00000000 300.00000000 300.00000000 300.00000000 300.00000000 300.00000000 300.00000000 300.00000000 300.00000000 300.00000000 300.00000000 300.00000000 300.00000000 300.00000000 300.00000000 300.00000000 300.00000000 300.00000000 300.00000000 300.00000000 300.00000000 300.00000000 300.00000000 300.00000000 300.00000000 300.00000000 300.00000000 300.00000000 407.83267931 486.01848021 518.13673760 528.32230715 539.83379391 581.36673313 617.34392585 631.28906862 631.28906862 617.34392585 581.36673313 539.83379391 528.32230715 518.13673760 486.01848021 407.83267931 300.00000000 300.00000000 300.00000000 300.00000000 300.00000000 300.00000000 300.00000000 300.00000000 300.00000000 300.00000000 300.00000000 300.00000000 300.00000000 300.00000000 300.00000000 300.00000000 300.00000000 300.00000000 300.00000000 300.00000000 300.00000000 300.00000000 453.09504140 520.86939321 579.60451515 623.81540252 641.81052812 646.67824863 651.07281762 662.74282725 672.87725775 676.52380296 676.52380296 672.87725775 662.74282725 651.07281762 646.67824863 641.81052812 623.81540252 579.60451515 520.86939321 453.09504140 300.00000000 300.00000000 300.00000000 300.00000000 300.00000000 300.00000000 300.00000000 300.00000000 300.00000000 300.00000000 300.00000000 300.00000000 300.00000000 300.00000000 300.00000000 300.00000000 300.00000000 300.00000000 443.56596959 521.73572083 601.86381816 640.58621759 661.58436123 674.38922745 678.90672902 679.85894733 680.65342011 682.77970292 684.49539341 685.01630182 685.01630182 684.49539341 682.77970292 680.65342011 679.85894733 678.90672902 674.38922745 661.58436123 640.58621759 601.86381816 521.73572083 443.56596959 300.00000000 300.00000000 300.00000000 300.00000000 300.00000000 300.00000000 300.00000000 300.00000000 300.00000000 300.00000000 300.00000000 300.00000000 300.00000000 300.00000000 300.00000000 466.63052955 582.38175584 637.43582341 667.02113489 678.18648895 682.54330141 684.69051321 685.30029472 685.38873668 685.46916585 685.72278981 685.90123206 685.94126321 685.94126321 685.90123206 685.72278981 685.46916585 685.38873668 685.30029472 684.69051321 682.54330141 678.18648895 667.02113489 637.43582341 582.38175584 466.63052955 300.00000000 300.00000000 300.00000000 300.00000000 300.00000000 300.00000000 300.00000000 300.00000000 300.00000000 300.00000000 300.00000000 300.00000000 395.71127716 500.49580471 601.53719447 656.84522111 676.59457118 683.33821624 685.17224866 685.70175486 685.91511739 685.95876229 685.96201108 685.96660775 685.98618667 685.99689595 685.99821142 685.99821142 685.99689595 685.98618667 685.96660775 685.96201108 685.95876229 685.91511739 685.70175486 685.17224866 683.33821624 676.59457118 656.84522111 601.53719447 500.49580471 395.71127716 300.00000000 300.00000000 300.00000000 300.00000000 300.00000000 300.00000000 300.00000000 300.00000000 300.00000000 300.00000000 500.49456785 611.10643460 662.60715553 680.52431077 684.84567015 685.77801528 685.94866001 685.98545484 685.99733504 685.99864871 685.99864871 685.99877351 685.99968832 685.99997928 685.99997928 685.99997928 685.99997928 685.99968832 685.99877351 685.99864871 685.99864871 685.99733504 685.98545484 685.94866001 685.77801528 684.84567015 680.52431077 662.60715553 611.10643460 500.49456785 300.00000000 300.00000000 300.00000000 300.00000000 300.00000000 300.00000000 300.00000000 300.00000000 300.00000000 466.48390988 601.50592303 662.60497746 681.25548476 685.31410818 685.91596908 685.99020254 685.99833625 685.99968832 685.99997928 685.99997928 685.99997928 685.99997928 686.00000000 686.00000000 686.00000000 686.00000000 686.00000000 686.00000000 685.99997928 685.99997928 685.99997928 685.99997928 685.99968832 685.99833625 685.99020254 685.91596908 685.31410818 681.25548476 662.60497746 601.50592303 466.48390988 300.00000000 300.00000000 300.00000000 300.00000000 300.00000000 300.00000000 300.00000000 440.40363308 580.97468945 656.57500423 680.49837344 685.31302892 685.94634103 685.99700365 685.99983394 685.99997928 686.00000000 686.00000000 686.00000000 686.00000000 686.00000000 686.00000000 686.00000000 686.00000000 686.00000000 686.00000000 686.00000000 686.00000000 686.00000000 686.00000000 686.00000000 686.00000000 685.99997928 685.99983394 685.99700365 685.94634103 685.31302892 680.49837344 656.57500423 580.97468945 440.40363308 300.00000000 300.00000000 300.00000000 300.00000000 300.00000000 300.00000000 504.08938138 630.77034145 675.39168701 684.72695806 685.90989828 685.99687880 685.99995855 686.00000000 686.00000000 686.00000000 686.00000000 686.00000000 686.00000000 686.00000000 686.00000000 686.00000000 686.00000000 686.00000000 686.00000000 686.00000000 686.00000000 686.00000000 686.00000000 686.00000000 686.00000000 686.00000000 686.00000000 685.99995855 685.99687880 685.90989828 684.72695806 675.39168701 630.77034145 504.08938138 300.00000000 300.00000000 300.00000000 300.00000000 300.00000000 300.00000000 532.55056829 647.76546740 680.03967027 685.41714452 685.96497787 685.99877351 685.99997928 686.00000000 686.00000000 686.00000000 686.00000000 686.00000000 686.00000000 686.00000000 686.00000000 686.00000000 686.00000000 686.00000000 686.00000000 686.00000000 686.00000000 686.00000000 686.00000000 686.00000000 686.00000000 686.00000000 686.00000000 685.99997928 685.99877351 685.96497787 685.41714452 680.03967027 647.76546740 532.55056829 300.00000000 300.00000000 300.00000000 300.00000000 300.00000000 385.45754112 566.47323116 658.59937100 682.20485394 685.68224542 685.98499453 685.99968832 686.00000000 686.00000000 686.00000000 686.00000000 686.00000000 686.00000000 686.00000000 686.00000000 686.00000000 686.00000000 686.00000000 686.00000000 686.00000000 686.00000000 686.00000000 686.00000000 686.00000000 686.00000000 686.00000000 686.00000000 686.00000000 686.00000000 685.99968832 685.98499453 685.68224542 682.20485394 658.59937100 566.47323116 385.45754112 300.00000000 300.00000000 300.00000000 300.00000000 385.45754112 566.47323116 658.59937100 682.20485394 685.68224542 685.98499453 685.99968832 686.00000000 686.00000000 686.00000000 686.00000000 686.00000000 686.00000000 686.00000000 686.00000000 686.00000000 686.00000000 686.00000000 686.00000000 686.00000000 686.00000000 686.00000000 686.00000000 686.00000000 686.00000000 686.00000000 686.00000000 686.00000000 686.00000000 685.99968832 685.98499453 685.68224542 682.20485394 658.59937100 566.47323116 385.45754112 300.00000000 300.00000000 300.00000000 300.00000000 300.00000000 532.55056829 647.76546740 680.03967027 685.41714452 685.96497787 685.99877351 685.99997928 686.00000000 686.00000000 686.00000000 686.00000000 686.00000000 686.00000000 686.00000000 686.00000000 686.00000000 686.00000000 686.00000000 686.00000000 686.00000000 686.00000000 686.00000000 686.00000000 686.00000000 686.00000000 686.00000000 686.00000000 685.99997928 685.99877351 685.96497787 685.41714452 680.03967027 647.76546740 532.55056829 300.00000000 300.00000000 300.00000000 300.00000000 300.00000000 300.00000000 504.08938138 630.77034145 675.39168701 684.72695806 685.90989828 685.99687880 685.99995855 686.00000000 686.00000000 686.00000000 686.00000000 686.00000000 686.00000000 686.00000000 686.00000000 686.00000000 686.00000000 686.00000000 686.00000000 686.00000000 686.00000000 686.00000000 686.00000000 686.00000000 686.00000000 686.00000000 686.00000000 685.99995855 685.99687880 685.90989828 684.72695806 675.39168701 630.77034145 504.08938138 300.00000000 300.00000000 300.00000000 300.00000000 300.00000000 300.00000000 440.40363308 580.97468945 656.57500423 680.49837344 685.31302892 685.94634103 685.99700365 685.99983394 685.99997928 686.00000000 686.00000000 686.00000000 686.00000000 686.00000000 686.00000000 686.00000000 686.00000000 686.00000000 686.00000000 686.00000000 686.00000000 686.00000000 686.00000000 686.00000000 686.00000000 685.99997928 685.99983394 685.99700365 685.94634103 685.31302892 680.49837344 656.57500423 580.97468945 440.40363308 300.00000000 300.00000000 300.00000000 300.00000000 300.00000000 300.00000000 300.00000000 466.48390988 601.50592303 662.60497746 681.25548476 685.31410818 685.91596908 685.99020254 685.99833625 685.99968832 685.99997928 685.99997928 685.99997928 685.99997928 686.00000000 686.00000000 686.00000000 686.00000000 686.00000000 686.00000000 685.99997928 685.99997928 685.99997928 685.99997928 685.99968832 685.99833625 685.99020254 685.91596908 685.31410818 681.25548476 662.60497746 601.50592303 466.48390988 300.00000000 300.00000000 300.00000000 300.00000000 300.00000000 300.00000000 300.00000000 300.00000000 300.00000000 500.49456785 611.10643460 662.60715553 680.52431077 684.84567015 685.77801528 685.94866001 685.98545484 685.99733504 685.99864871 685.99864871 685.99877351 685.99968832 685.99997928 685.99997928 685.99997928 685.99997928 685.99968832 685.99877351 685.99864871 685.99864871 685.99733504 685.98545484 685.94866001 685.77801528 684.84567015 680.52431077 662.60715553 611.10643460 500.49456785 300.00000000 300.00000000 300.00000000 300.00000000 300.00000000 300.00000000 300.00000000 300.00000000 300.00000000 300.00000000 395.71127716 500.49580471 601.53719447 656.84522111 676.59457118 683.33821624 685.17224866 685.70175486 685.91511739 685.95876229 685.96201108 685.96660775 685.98618667 685.99689595 685.99821142 685.99821142 685.99689595 685.98618667 685.96660775 685.96201108 685.95876229 685.91511739 685.70175486 685.17224866 683.33821624 676.59457118 656.84522111 601.53719447 500.49580471 395.71127716 300.00000000 300.00000000 300.00000000 300.00000000 300.00000000 300.00000000 300.00000000 300.00000000 300.00000000 300.00000000 300.00000000 300.00000000 466.63052955 582.38175584 637.43582341 667.02113489 678.18648895 682.54330141 684.69051321 685.30029472 685.38873668 685.46916585 685.72278981 685.90123206 685.94126321 685.94126321 685.90123206 685.72278981 685.46916585 685.38873668 685.30029472 684.69051321 682.54330141 678.18648895 667.02113489 637.43582341 582.38175584 466.63052955 300.00000000 300.00000000 300.00000000 300.00000000 300.00000000 300.00000000 300.00000000 300.00000000 300.00000000 300.00000000 300.00000000 300.00000000 300.00000000 300.00000000 300.00000000 443.56596959 521.73572083 601.86381816 640.58621759 661.58436123 674.38922745 678.90672902 679.85894733 680.65342011 682.77970292 684.49539341 685.01630182 685.01630182 684.49539341 682.77970292 680.65342011 679.85894733 678.90672902 674.38922745 661.58436123 640.58621759 601.86381816 521.73572083 443.56596959 300.00000000 300.00000000 300.00000000 300.00000000 300.00000000 300.00000000 300.00000000 300.00000000 300.00000000 300.00000000 300.00000000 300.00000000 300.00000000 300.00000000 300.00000000 300.00000000 300.00000000 300.00000000 453.09504140 520.86939321 579.60451515 623.81540252 641.81052812 646.67824863 651.07281762 662.74282725 672.87725775 676.52380296 676.52380296 672.87725775 662.74282725 651.07281762 646.67824863 641.81052812 623.81540252 579.60451515 520.86939321 453.09504140 300.00000000 300.00000000 300.00000000 300.00000000 300.00000000 300.00000000 300.00000000 300.00000000 300.00000000 300.00000000 300.00000000 300.00000000 300.00000000 300.00000000 300.00000000 300.00000000 300.00000000 300.00000000 300.00000000 300.00000000 300.00000000 300.00000000 407.83267931 486.01848021 518.13673760 528.32230715 539.83379391 581.36673313 617.34392585 631.28906862 631.28906862 617.34392585 581.36673313 539.83379391 528.32230715 518.13673760 486.01848021 407.83267931 300.00000000 300.00000000 300.00000000 300.00000000 300.00000000 300.00000000 300.00000000 300.00000000 300.00000000 300.00000000 300.00000000 300.00000000 300.00000000 300.00000000 300.00000000 300.00000000 300.00000000 300.00000000 300.00000000 300.00000000 300.00000000 300.00000000 300.00000000 300.00000000 300.00000000 300.00000000 300.00000000 300.00000000 300.00000000 406.09735585 473.65664358 498.03447223 498.03447223 473.65664358 406.09735585 300.00000000 300.00000000 300.00000000 300.00000000 300.00000000 300.00000000 300.00000000 300.00000000 300.00000000 300.00000000 300.00000000 300.00000000 300.00000000 300.00000000 300.00000000 300.00000000 300.00000000 300.00000000 300.00000000 300.00000000 300.00000000 300.00000000 300.00000000 300.00000000 300.00000000 300.00000000 300.00000000 300.00000000 300.00000000 300.00000000 300.00000000 300.00000000 300.00000000 300.00000000 300.00000000 300.00000000 300.00000000 300.00000000 300.00000000 300.00000000 300.00000000 300.00000000 300.00000000 300.00000000 300.00000000 300.00000000 300.00000000 300.00000000 300.00000000 300.00000000 300.00000000 300.00000000 300.00000000 300.00000000 300.00000000 300.00000000 300.00000000 300.00000000 300.00000000 300.00000000 300.00000000 300.00000000 300.00000000 300.00000000 300.00000000 300.00000000 300.00000000 300.00000000 300.00000000 300.00000000 300.00000000 300.00000000 300.00000000 300.00000000 300.00000000 300.00000000 300.00000000 300.00000000 300.00000000 300.00000000 300.00000000 300.00000000 300.00000000 300.00000000 300.00000000 300.00000000 300.00000000 300.00000000 300.00000000 300.00000000 300.00000000 300.00000000 300.00000000 300.00000000 300.00000000 300.00000000 300.00000000 300.00000000 300.00000000 300.00000000 300.00000000 300.00000000 300.00000000 300.00000000 300.00000000 300.00000000 300.00000000 300.00000000 300.00000000 300.00000000 300.00000000 300.00000000 300.00000000 300.00000000 300.00000000 300.00000000 300.00000000 300.00000000 300.00000000 300.00000000 300.00000000 300.00000000 300.00000000 300.00000000 300.00000000 300.00000000 300.00000000 300.00000000 300.00000000 300.00000000 300.00000000 300.00000000 300.00000000 300.00000000 300.00000000 300.00000000 300.00000000 300.00000000 300.00000000 300.00000000 300.00000000 300.00000000 300.00000000 300.00000000 300.00000000 300.00000000 300.00000000 300.00000000 300.00000000 300.00000000 300.00000000 300.00000000 300.00000000 300.00000000 300.00000000 300.00000000 300.00000000 300.00000000 300.00000000 300.00000000 300.00000000 300.00000000 300.00000000 300.00000000 300.00000000 300.00000000 300.00000000 300.00000000 300.00000000 300.00000000 300.00000000 300.00000000 300.00000000 300.00000000 300.00000000 300.00000000 300.00000000 300.00000000 300.00000000 300.00000000 300.00000000 300.00000000 300.00000000 300.00000000 300.00000000 300.00000000 300.00000000 300.00000000 300.00000000 300.00000000 300.00000000 300.00000000 300.00000000 300.00000000 300.00000000 300.00000000 300.00000000 300.00000000 300.00000000 300.00000000 300.00000000 300.00000000 300.00000000 300.00000000 300.00000000 300.00000000 300.00000000 300.00000000 300.00000000 300.00000000 300.00000000 300.00000000 300.00000000 300.00000000 300.00000000 300.00000000 300.00000000 300.00000000 300.00000000 300.00000000 300.00000000 300.00000000 300.00000000 300.00000000 300.00000000 300.00000000 300.00000000 300.00000000 300.00000000 300.00000000 300.00000000 300.00000000 300.00000000 300.00000000 300.00000000 300.00000000 300.00000000 300.00000000 300.00000000 300.00000000 300.00000000 300.00000000 300.00000000 300.00000000 300.00000000 300.00000000 300.00000000 300.00000000 300.00000000 300.00000000 300.00000000 300.00000000 300.00000000 300.00000000 300.00000000 300.00000000 300.00000000 300.00000000 300.00000000 300.00000000 300.00000000 300.00000000 300.00000000 300.00000000 300.00000000 300.00000000 300.00000000 300.00000000 300.00000000 300.00000000 300.00000000 300.00000000 300.00000000 300.00000000 300.00000000 300.00000000 300.00000000 300.00000000 300.00000000 300.00000000 300.00000000 300.00000000 300.00000000 300.00000000 300.00000000 300.00000000 300.00000000 300.00000000 300.00000000 300.00000000 300.00000000 300.00000000 300.00000000 300.00000000 300.00000000 300.00000000 300.00000000 300.00000000 300.00000000 300.00000000 300.00000000 300.00000000 300.00000000 300.00000000 300.00000000 300.00000000 300.00000000 300.00000000 300.00000000 300.00000000 300.00000000 300.00000000 300.00000000 300.00000000 300.00000000 300.00000000 300.00000000 300.00000000 300.00000000 300.00000000 300.00000000 300.00000000 300.00000000 300.00000000 300.00000000 300.00000000 300.00000000 300.00000000 300.00000000 300.00000000 300.00000000 300.00000000 300.00000000 300.00000000 300.00000000 300.00000000 300.00000000 