# vtk DataFile Version 3.0
VTK - Matlab export
ASCII
DATASET STRUCTURED_POINTS
DIMENSIONS 40 40 1
SPACING 1 1 1
ORIGIN 0 0 0
POINT_DATA 1600
SCALARS Proofstrength float 1
LOOKUP_TABLE default
142.25514280 142.25514280 142.25514280 142.25514280 142.25514280 142.25514280 142.25514280 142.25514280 142.25514280 142.25514280 142.25514280 142.25514280 142.25514280 142.25514280 142.25514280 142.25514280 142.25514280 142.25514280 142.25514280 142.25514280 142.25514280 142.25514280 142.25514280 142.25514280 142.25514280 142.25514280 142.25514280 142.25514280 142.25514280 142.25514280 142.25514280 142.25514280 142.25514280 142.25514280 142.25514280 142.25514280 142.25514280 142.25514280 142.25514280 142.25514280 142.25514280 142.25514280 142.25514280 142.25514280 142.25514280 142.25514280 142.25514280 142.25514280 142.25514280 142.25514280 142.25514280 142.25514280 142.25514280 142.25514280 142.25514280 142.25514280 142.25514280 142.25514280 142.25514280 142.25514280 142.25514280 142.25514280 142.25514280 142.25514280 142.25514280 142.25514280 142.25514280 142.25514280 142.25514280 142.25514280 142.25514280 142.25514280 142.25514280 142.25514280 142.25514280 142.25514280 142.25514280 142.25514280 142.25514280 142.25514280 142.25514280 142.25514280 142.25514280 142.25514280 142.25514280 142.25514280 142.25514280 142.25514280 142.25514280 142.25514280 142.25514280 142.25514280 142.25514280 142.25514280 142.25514280 142.25514280 142.25514280 142.25514280 142.25514280 142.25514280 142.25514280 142.25514280 142.25514280 142.25514280 142.25514280 142.25514280 142.25514280 142.25514280 142.25514280 142.25514280 142.25514280 142.25514280 142.25514280 142.25514280 142.25514280 142.25514280 142.25514280 142.25514280 142.25514280 142.25514280 142.25514280 142.25514280 142.25514280 142.25514280 142.25514280 142.25514280 142.25514280 142.25514280 142.25514280 142.25514280 142.25514280 142.25514280 142.25514280 142.25514280 142.25514280 142.25514280 142.25514280 142.25514280 142.25514280 142.25514280 142.25514280 142.25514280 142.25514280 142.25514280 142.25514280 142.25514280 142.25514280 142.25514280 142.25514280 142.25514280 142.25514280 142.25514280 142.25514280 142.25514280 142.25514280 142.25514280 142.25514280 142.25514280 142.25514280 142.25514280 142.25514280 142.25514280 142.25514280 142.25514280 142.25514280 142.25514280 142.25514280 142.25514280 142.25514280 142.25514280 142.25514280 142.25514280 142.25514280 142.25514280 142.25514280 142.25514280 142.25514280 142.25514280 142.25514280 142.25514280 142.25514280 142.25514280 142.25514280 142.25514280 142.25514280 142.25514280 142.25514280 142.25514280 142.25514280 142.25514280 142.25514280 142.25514280 142.25514280 142.25514280 142.25514280 142.25514280 142.25514280 142.25514280 142.25514280 142.25514280 142.25514280 142.25514280 142.25514280 142.25514280 142.25514280 142.25514280 142.25514280 142.25514280 142.25514280 142.25514280 142.25514280 142.25514280 142.25514280 142.25514280 142.25514280 142.25514280 142.25514280 142.25514280 142.25514280 142.25514280 142.25514280 142.25514280 142.25514280 142.25514280 142.25514280 142.25514280 142.25514280 142.25514280 142.25514280 142.25514280 142.25514280 142.25514280 142.25514280 142.25514280 142.25514280 142.25514280 142.25514280 142.25514280 142.25514280 142.25514280 142.25514280 142.25514280 142.25514280 142.25514280 142.25514280 142.25514280 142.25514280 142.25514280 142.25514280 142.25514280 142.25514280 142.25514280 142.25514280 142.25514280 142.25514280 142.25514280 142.25514280 142.25514280 142.25514280 142.25514280 142.25514280 142.25514280 142.25514280 142.25514280 142.25514280 142.25514280 142.25514280 142.25514280 142.25514280 142.25514280 142.25514280 142.25514280 142.25514280 142.25514280 142.25514280 142.25514280 142.25514280 142.25514280 142.25514280 142.25514280 142.25514280 142.25514280 142.25514280 142.25514280 142.25514280 142.25514280 142.25514280 142.25514280 142.25514280 142.25514280 142.25514280 142.25514280 142.25514280 142.25514280 142.25514280 142.25514280 142.25514280 142.25514280 142.25514280 142.25514280 142.25514280 142.25514280 142.25514280 142.25514280 142.25514280 142.25514280 142.25514280 142.25514280 142.25514280 142.25514280 142.25514280 142.25514280 142.25514280 142.25514280 142.25514280 142.25514280 142.25514280 142.25514280 142.25514280 142.25514280 142.25514280 142.25514280 142.25514280 142.25514280 142.25514280 142.25514280 142.25514280 142.25514280 142.25514280 142.25514280 142.25514280 142.25514280 142.25514280 142.25514280 142.25514280 142.25514280 142.25514280 142.25746252 142.25873270 142.25920267 142.25920267 142.25873270 142.25746252 142.25514280 142.25514280 142.25514280 142.25514280 142.25514280 142.25514280 142.25514280 142.25514280 142.25514280 142.25514280 142.25514280 142.25514280 142.25514280 142.25514280 142.25514280 142.25514280 142.25514280 142.25514280 142.25514280 142.25514280 142.25514280 142.25514280 142.25514280 142.25514280 142.25514280 142.25514280 142.25514280 142.25514280 142.25514280 142.25759244 142.25941649 142.26049238 142.26118065 142.26180102 142.26287072 142.26375334 142.26418133 142.26418133 142.26375334 142.26287072 142.26180102 142.26118065 142.26049238 142.25941649 142.25759244 142.25514280 142.25514280 142.25514280 142.25514280 142.25514280 142.25514280 142.25514280 142.25514280 142.25514280 142.25514280 142.25514280 142.25514280 142.25514280 142.25514280 142.25514280 142.25514280 142.25514280 142.25514280 142.25514280 142.25514280 142.25514280 142.25514280 142.25878553 142.26080821 142.26281375 142.26459970 142.26589706 142.26680455 142.26751829 142.26821667 142.26878082 142.26907822 142.26907822 142.26878082 142.26821667 142.26751829 142.26680455 142.26589706 142.26459970 142.26281375 142.26080821 142.25878553 142.25514280 142.25514280 142.25514280 142.25514280 142.25514280 142.25514280 142.25514280 142.25514280 142.25514280 142.25514280 142.25514280 142.25514280 142.25514280 142.25514280 142.25514280 142.25514280 142.25514280 142.25514280 142.25855995 142.26100825 142.26386948 142.26614787 142.26802400 142.26954175 142.27065096 142.27141688 142.27196420 142.27239577 142.27271418 142.27288212 142.27288212 142.27271418 142.27239577 142.27196420 142.27141688 142.27065096 142.26954175 142.26802400 142.26614787 142.26386948 142.26100825 142.25855995 142.25514280 142.25514280 142.25514280 142.25514280 142.25514280 142.25514280 142.25514280 142.25514280 142.25514280 142.25514280 142.25514280 142.25514280 142.25514280 142.25514280 142.25514280 142.25948880 142.26315648 142.26618138 142.26880957 142.27085308 142.27235963 142.27341633 142.27409210 142.27448375 142.27470197 142.27483447 142.27491970 142.27496299 142.27496299 142.27491970 142.27483447 142.27470197 142.27448375 142.27409210 142.27341633 142.27235963 142.27085308 142.26880957 142.26618138 142.26315648 142.25948880 142.25514280 142.25514280 142.25514280 142.25514280 142.25514280 142.25514280 142.25514280 142.25514280 142.25514280 142.25514280 142.25514280 142.25514280 142.25730725 142.26040480 142.26433511 142.26789852 142.27079048 142.27298405 142.27447447 142.27535863 142.27577718 142.27586835 142.27576269 142.27557400 142.27538587 142.27524539 142.27517211 142.27517211 142.27524539 142.27538587 142.27557400 142.27576269 142.27586835 142.27577718 142.27535863 142.27447447 142.27298405 142.27079048 142.26789852 142.26433511 142.26040480 142.25730725 142.25514280 142.25514280 142.25514280 142.25514280 142.25514280 142.25514280 142.25514280 142.25514280 142.25514280 142.25514280 142.26039152 142.26481100 142.26882696 142.27212898 142.27453835 142.27605081 142.27676846 142.27686939 142.27655562 142.27601158 142.27538788 142.27479668 142.27431196 142.27397472 142.27380310 142.27380310 142.27397472 142.27431196 142.27479668 142.27538788 142.27601158 142.27655562 142.27686939 142.27676846 142.27605081 142.27453835 142.27212898 142.26882696 142.26481100 142.26039152 142.25514280 142.25514280 142.25514280 142.25514280 142.25514280 142.25514280 142.25514280 142.25514280 142.25514280 142.25937783 142.26426772 142.26884077 142.27269204 142.27552872 142.27724648 142.27792631 142.27777397 142.27705225 142.27601869 142.27488559 142.27380663 142.27288068 142.27216300 142.27167872 142.27143594 142.27143594 142.27167872 142.27216300 142.27288068 142.27380663 142.27488559 142.27601869 142.27705225 142.27777397 142.27792631 142.27724648 142.27552872 142.27269204 142.26884077 142.26426772 142.25937783 142.25514280 142.25514280 142.25514280 142.25514280 142.25514280 142.25514280 142.25514280 142.25820739 142.26274683 142.26770199 142.27221621 142.27574315 142.27799608 142.27894480 142.27877023 142.27777824 142.27630703 142.27465564 142.27304721 142.27162401 142.27046187 142.26959102 142.26901598 142.26873115 142.26873115 142.26901598 142.26959102 142.27046187 142.27162401 142.27304721 142.27465564 142.27630703 142.27777824 142.27877023 142.27894480 142.27799608 142.27574315 142.27221621 142.26770199 142.26274683 142.25820739 142.25514280 142.25514280 142.25514280 142.25514280 142.25514280 142.25514280 142.25994907 142.26518367 142.27034355 142.27476076 142.27792514 142.27959942 142.27983517 142.27890920 142.27721361 142.27514515 142.27302851 142.27108490 142.26943726 142.26813495 142.26718253 142.26656420 142.26626096 142.26626096 142.26656420 142.26718253 142.26813495 142.26943726 142.27108490 142.27302851 142.27514515 142.27721361 142.27890920 142.27983517 142.27959942 142.27792514 142.27476076 142.27034355 142.26518367 142.25994907 142.25514280 142.25514280 142.25514280 142.25514280 142.25514280 142.25514280 142.26106508 142.26680154 142.27211494 142.27643345 142.27929287 142.28050853 142.28020181 142.27872446 142.27653118 142.27405739 142.27164053 142.26949427 142.26772251 142.26635198 142.26536663 142.26473482 142.26442731 142.26442731 142.26473482 142.26536663 142.26635198 142.26772251 142.26949427 142.27164053 142.27405739 142.27653118 142.27872446 142.28020181 142.28050853 142.27929287 142.27643345 142.27211494 142.26680154 142.26106508 142.25514280 142.25514280 142.25514280 142.25514280 142.25514280 142.25692099 142.26197617 142.26768216 142.27301376 142.27725879 142.27994290 142.28090588 142.28030754 142.27854023 142.27609135 142.27341517 142.27085377 142.26861488 142.26679080 142.26539536 142.26440114 142.26376796 142.26346107 142.26346107 142.26376796 142.26440114 142.26539536 142.26679080 142.26861488 142.27085377 142.27341517 142.27609135 142.27854023 142.28030754 142.28090588 142.27994290 142.27725879 142.27301376 142.26768216 142.26197617 142.25692099 142.25514280 142.25514280 142.25514280 142.25514280 142.25692099 142.26197617 142.26768216 142.27301376 142.27725879 142.27994290 142.28090588 142.28030754 142.27854023 142.27609135 142.27341517 142.27085377 142.26861488 142.26679080 142.26539536 142.26440114 142.26376796 142.26346107 142.26346107 142.26376796 142.26440114 142.26539536 142.26679080 142.26861488 142.27085377 142.27341517 142.27609135 142.27854023 142.28030754 142.28090588 142.27994290 142.27725879 142.27301376 142.26768216 142.26197617 142.25692099 142.25514280 142.25514280 142.25514280 142.25514280 142.25514280 142.26106508 142.26680154 142.27211494 142.27643345 142.27929287 142.28050853 142.28020181 142.27872446 142.27653118 142.27405739 142.27164053 142.26949427 142.26772251 142.26635198 142.26536663 142.26473482 142.26442731 142.26442731 142.26473482 142.26536663 142.26635198 142.26772251 142.26949427 142.27164053 142.27405739 142.27653118 142.27872446 142.28020181 142.28050853 142.27929287 142.27643345 142.27211494 142.26680154 142.26106508 142.25514280 142.25514280 142.25514280 142.25514280 142.25514280 142.25514280 142.25994907 142.26518367 142.27034355 142.27476076 142.27792514 142.27959942 142.27983517 142.27890920 142.27721361 142.27514515 142.27302851 142.27108490 142.26943726 142.26813495 142.26718253 142.26656420 142.26626096 142.26626096 142.26656420 142.26718253 142.26813495 142.26943726 142.27108490 142.27302851 142.27514515 142.27721361 142.27890920 142.27983517 142.27959942 142.27792514 142.27476076 142.27034355 142.26518367 142.25994907 142.25514280 142.25514280 142.25514280 142.25514280 142.25514280 142.25514280 142.25820739 142.26274683 142.26770199 142.27221621 142.27574315 142.27799608 142.27894480 142.27877023 142.27777824 142.27630703 142.27465564 142.27304721 142.27162401 142.27046187 142.26959102 142.26901598 142.26873115 142.26873115 142.26901598 142.26959102 142.27046187 142.27162401 142.27304721 142.27465564 142.27630703 142.27777824 142.27877023 142.27894480 142.27799608 142.27574315 142.27221621 142.26770199 142.26274683 142.25820739 142.25514280 142.25514280 142.25514280 142.25514280 142.25514280 142.25514280 142.25514280 142.25937783 142.26426772 142.26884077 142.27269204 142.27552872 142.27724648 142.27792631 142.27777397 142.27705225 142.27601869 142.27488559 142.27380663 142.27288068 142.27216300 142.27167872 142.27143594 142.27143594 142.27167872 142.27216300 142.27288068 142.27380663 142.27488559 142.27601869 142.27705225 142.27777397 142.27792631 142.27724648 142.27552872 142.27269204 142.26884077 142.26426772 142.25937783 142.25514280 142.25514280 142.25514280 142.25514280 142.25514280 142.25514280 142.25514280 142.25514280 142.25514280 142.26039152 142.26481100 142.26882696 142.27212898 142.27453835 142.27605081 142.27676846 142.27686939 142.27655562 142.27601158 142.27538788 142.27479668 142.27431196 142.27397472 142.27380310 142.27380310 142.27397472 142.27431196 142.27479668 142.27538788 142.27601158 142.27655562 142.27686939 142.27676846 142.27605081 142.27453835 142.27212898 142.26882696 142.26481100 142.26039152 142.25514280 142.25514280 142.25514280 142.25514280 142.25514280 142.25514280 142.25514280 142.25514280 142.25514280 142.25514280 142.25730725 142.26040480 142.26433511 142.26789852 142.27079048 142.27298405 142.27447447 142.27535863 142.27577718 142.27586835 142.27576269 142.27557400 142.27538587 142.27524539 142.27517211 142.27517211 142.27524539 142.27538587 142.27557400 142.27576269 142.27586835 142.27577718 142.27535863 142.27447447 142.27298405 142.27079048 142.26789852 142.26433511 142.26040480 142.25730725 142.25514280 142.25514280 142.25514280 142.25514280 142.25514280 142.25514280 142.25514280 142.25514280 142.25514280 142.25514280 142.25514280 142.25514280 142.25948880 142.26315648 142.26618138 142.26880957 142.27085308 142.27235963 142.27341633 142.27409210 142.27448375 142.27470197 142.27483447 142.27491970 142.27496299 142.27496299 142.27491970 142.27483447 142.27470197 142.27448375 142.27409210 142.27341633 142.27235963 142.27085308 142.26880957 142.26618138 142.26315648 142.25948880 142.25514280 142.25514280 142.25514280 142.25514280 142.25514280 142.25514280 142.25514280 142.25514280 142.25514280 142.25514280 142.25514280 142.25514280 142.25514280 142.25514280 142.25514280 142.25855995 142.26100825 142.26386948 142.26614787 142.26802400 142.26954175 142.27065096 142.27141688 142.27196420 142.27239577 142.27271418 142.27288212 142.27288212 142.27271418 142.27239577 142.27196420 142.27141688 142.27065096 142.26954175 142.26802400 142.26614787 142.26386948 142.26100825 142.25855995 142.25514280 142.25514280 142.25514280 142.25514280 142.25514280 142.25514280 142.25514280 142.25514280 142.25514280 142.25514280 142.25514280 142.25514280 142.25514280 142.25514280 142.25514280 142.25514280 142.25514280 142.25514280 142.25878553 142.26080821 142.26281375 142.26459970 142.26589706 142.26680455 142.26751829 142.26821667 142.26878082 142.26907822 142.26907822 142.26878082 142.26821667 142.26751829 142.26680455 142.26589706 142.26459970 142.26281375 142.26080821 142.25878553 142.25514280 142.25514280 142.25514280 142.25514280 142.25514280 142.25514280 142.25514280 142.25514280 142.25514280 142.25514280 142.25514280 142.25514280 142.25514280 142.25514280 142.25514280 142.25514280 142.25514280 142.25514280 142.25514280 142.25514280 142.25514280 142.25514280 142.25759244 142.25941649 142.26049238 142.26118065 142.26180102 142.26287072 142.26375334 142.26418133 142.26418133 142.26375334 142.26287072 142.26180102 142.26118065 142.26049238 142.25941649 142.25759244 142.25514280 142.25514280 142.25514280 142.25514280 142.25514280 142.25514280 142.25514280 142.25514280 142.25514280 142.25514280 142.25514280 142.25514280 142.25514280 142.25514280 142.25514280 142.25514280 142.25514280 142.25514280 142.25514280 142.25514280 142.25514280 142.25514280 142.25514280 142.25514280 142.25514280 142.25514280 142.25514280 142.25514280 142.25514280 142.25746252 142.25873270 142.25920267 142.25920267 142.25873270 142.25746252 142.25514280 142.25514280 142.25514280 142.25514280 142.25514280 142.25514280 142.25514280 142.25514280 142.25514280 142.25514280 142.25514280 142.25514280 142.25514280 142.25514280 142.25514280 142.25514280 142.25514280 142.25514280 142.25514280 142.25514280 142.25514280 142.25514280 142.25514280 142.25514280 142.25514280 142.25514280 142.25514280 142.25514280 142.25514280 142.25514280 142.25514280 142.25514280 142.25514280 142.25514280 142.25514280 142.25514280 142.25514280 142.25514280 142.25514280 142.25514280 142.25514280 142.25514280 142.25514280 142.25514280 142.25514280 142.25514280 142.25514280 142.25514280 142.25514280 142.25514280 142.25514280 142.25514280 142.25514280 142.25514280 142.25514280 142.25514280 142.25514280 142.25514280 142.25514280 142.25514280 142.25514280 142.25514280 142.25514280 142.25514280 142.25514280 142.25514280 142.25514280 142.25514280 142.25514280 142.25514280 142.25514280 142.25514280 142.25514280 142.25514280 142.25514280 142.25514280 142.25514280 142.25514280 142.25514280 142.25514280 142.25514280 142.25514280 142.25514280 142.25514280 142.25514280 142.25514280 142.25514280 142.25514280 142.25514280 142.25514280 142.25514280 142.25514280 142.25514280 142.25514280 142.25514280 142.25514280 142.25514280 142.25514280 142.25514280 142.25514280 142.25514280 142.25514280 142.25514280 142.25514280 142.25514280 142.25514280 142.25514280 142.25514280 142.25514280 142.25514280 142.25514280 142.25514280 142.25514280 142.25514280 142.25514280 142.25514280 142.25514280 142.25514280 142.25514280 142.25514280 142.25514280 142.25514280 142.25514280 142.25514280 142.25514280 142.25514280 142.25514280 142.25514280 142.25514280 142.25514280 142.25514280 142.25514280 142.25514280 142.25514280 142.25514280 142.25514280 142.25514280 142.25514280 142.25514280 142.25514280 142.25514280 142.25514280 142.25514280 142.25514280 142.25514280 142.25514280 142.25514280 142.25514280 142.25514280 142.25514280 142.25514280 142.25514280 142.25514280 142.25514280 142.25514280 142.25514280 142.25514280 142.25514280 142.25514280 142.25514280 142.25514280 142.25514280 142.25514280 142.25514280 142.25514280 142.25514280 142.25514280 142.25514280 142.25514280 142.25514280 142.25514280 142.25514280 142.25514280 142.25514280 142.25514280 142.25514280 142.25514280 142.25514280 142.25514280 142.25514280 142.25514280 142.25514280 142.25514280 142.25514280 142.25514280 142.25514280 142.25514280 142.25514280 142.25514280 142.25514280 142.25514280 142.25514280 142.25514280 142.25514280 142.25514280 142.25514280 142.25514280 142.25514280 142.25514280 142.25514280 142.25514280 142.25514280 142.25514280 142.25514280 142.25514280 142.25514280 142.25514280 142.25514280 142.25514280 142.25514280 142.25514280 142.25514280 142.25514280 142.25514280 142.25514280 142.25514280 142.25514280 142.25514280 142.25514280 142.25514280 142.25514280 142.25514280 142.25514280 142.25514280 142.25514280 142.25514280 142.25514280 142.25514280 142.25514280 142.25514280 142.25514280 142.25514280 142.25514280 142.25514280 142.25514280 142.25514280 142.25514280 142.25514280 142.25514280 142.25514280 142.25514280 142.25514280 142.25514280 142.25514280 142.25514280 142.25514280 142.25514280 142.25514280 142.25514280 142.25514280 142.25514280 142.25514280 142.25514280 142.25514280 142.25514280 142.25514280 142.25514280 142.25514280 142.25514280 142.25514280 142.25514280 142.25514280 142.25514280 142.25514280 142.25514280 142.25514280 142.25514280 142.25514280 142.25514280 142.25514280 142.25514280 142.25514280 142.25514280 142.25514280 142.25514280 142.25514280 142.25514280 142.25514280 142.25514280 142.25514280 142.25514280 142.25514280 142.25514280 142.25514280 142.25514280 142.25514280 142.25514280 142.25514280 142.25514280 142.25514280 142.25514280 142.25514280 142.25514280 142.25514280 142.25514280 142.25514280 142.25514280 142.25514280 142.25514280 142.25514280 142.25514280 142.25514280 142.25514280 142.25514280 142.25514280 142.25514280 142.25514280 142.25514280 142.25514280 142.25514280 142.25514280 142.25514280 142.25514280 142.25514280 142.25514280 142.25514280 142.25514280 142.25514280 142.25514280 142.25514280 142.25514280 142.25514280 142.25514280 142.25514280 142.25514280 142.25514280 142.25514280 142.25514280 142.25514280 142.25514280 142.25514280 142.25514280 142.25514280 142.25514280 142.25514280 142.25514280 142.25514280 