# vtk DataFile Version 3.0
VTK - Matlab export
ASCII
DATASET STRUCTURED_POINTS
DIMENSIONS 40 40 1
SPACING 1 1 1
ORIGIN 0 0 0
POINT_DATA 1600
SCALARS Temperature float 1
LOOKUP_TABLE default
300.00000000 300.00000000 300.00000000 300.00000000 300.00000000 300.00000000 300.00000000 300.00000000 300.00000000 300.00000000 300.00000000 300.00000000 300.00000000 300.00000000 300.00000000 300.00000000 300.00000000 300.00000000 300.00000000 300.00000000 300.00000000 300.00000000 300.00000000 300.00000000 300.00000000 300.00000000 300.00000000 300.00000000 300.00000000 300.00000000 300.00000000 300.00000000 300.00000000 300.00000000 300.00000000 300.00000000 300.00000000 300.00000000 300.00000000 300.00000000 300.00000000 300.00000000 300.00000000 300.00000000 300.00000000 300.00000000 300.00000000 300.00000000 300.00000000 300.00000000 300.00000000 300.00000000 300.00000000 300.00000000 300.00000000 300.00000000 300.00000000 300.00000000 300.00000000 300.00000000 300.00000000 300.00000000 300.00000000 300.00000000 300.00000000 300.00000000 300.00000000 300.00000000 300.00000000 300.00000000 300.00000000 300.00000000 300.00000000 300.00000000 300.00000000 300.00000000 300.00000000 300.00000000 300.00000000 300.00000000 300.00000000 300.00000000 300.00000000 300.00000000 300.00000000 300.00000000 300.00000000 300.00000000 300.00000000 300.00000000 300.00000000 300.00000000 300.00000000 300.00000000 300.00000000 300.00000000 300.00000000 300.00000000 300.00000000 300.00000000 300.00000000 300.00000000 300.00000000 300.00000000 300.00000000 300.00000000 300.00000000 300.00000000 300.00000000 300.00000000 300.00000000 300.00000000 300.00000000 300.00000000 300.00000000 300.00000000 300.00000000 300.00000000 300.00000000 300.00000000 300.00000000 300.00000000 300.00000000 300.00000000 300.00000000 300.00000000 300.00000000 300.00000000 300.00000000 300.00000000 300.00000000 300.00000000 300.00000000 300.00000000 300.00000000 300.00000000 300.00000000 300.00000000 300.00000000 300.00000000 300.00000000 300.00000000 300.00000000 300.00000000 300.00000000 300.00000000 300.00000000 300.00000000 300.00000000 300.00000000 300.00000000 300.00000000 300.00000000 300.00000000 300.00000000 300.00000000 300.00000000 300.00000000 300.00000000 300.00000000 300.00000000 300.00000000 300.00000000 300.00000000 300.00000000 300.00000000 300.00000000 300.00000000 300.00000000 300.00000000 300.00000000 300.00000000 300.00000000 300.00000000 300.00000000 300.00000000 300.00000000 300.00000000 300.00000000 300.00000000 300.00000000 300.00000000 300.00000000 300.00000000 300.00000000 300.00000000 300.00000000 300.00000000 300.00000000 300.00000000 300.00000000 300.00000000 300.00000000 300.00000000 300.00000000 300.00000000 300.00000000 300.00000000 300.00000000 300.00000000 300.00000000 300.00000000 300.00000000 300.00000000 300.00000000 300.00000000 300.00000000 300.00000000 300.00000000 300.00000000 300.00000000 300.00000000 300.00000000 300.00000000 300.00000000 300.00000000 300.00000000 300.00000000 300.00000000 300.00000000 300.00000000 300.00000000 300.00000000 300.00000000 300.00000000 300.00000000 300.00000000 300.00000000 300.00000000 300.00000000 300.00000000 300.00000000 300.00000000 300.00000000 300.00000000 300.00000000 300.00000000 300.00000000 300.00000000 300.00000000 300.00000000 300.00000000 300.00000000 300.00000000 300.00000000 300.00000000 300.00000000 300.00000000 300.00000000 300.00000000 300.00000000 300.00000000 300.00000000 300.00000000 300.00000000 300.00000000 300.00000000 300.00000000 300.00000000 300.00000000 300.00000000 300.00000000 300.00000000 300.00000000 300.00000000 300.00000000 300.00000000 300.00000000 300.00000000 300.00000000 300.00000000 300.00000000 300.00000000 300.00000000 300.00000000 300.00000000 300.00000000 300.00000000 300.00000000 300.00000000 300.00000000 300.00000000 300.00000000 300.00000000 300.00000000 300.00000000 300.00000000 300.00000000 300.00000000 300.00000000 300.00000000 300.00000000 300.00000000 300.00000000 300.00000000 300.00000000 300.00000000 300.00000000 300.00000000 300.00000000 300.00000000 300.00000000 300.00000000 300.00000000 300.00000000 300.00000000 300.00000000 300.00000000 300.00000000 300.00000000 300.00000000 300.00000000 300.00000000 300.00000000 300.00000000 300.00000000 300.00000000 300.00000000 300.00000000 300.00000000 300.00000000 300.00000000 300.00000000 300.00000000 300.00000000 300.00000000 300.00000000 300.00000000 300.00000000 300.00000000 300.00000000 300.00000000 300.00000000 300.00000000 300.00000000 300.00000000 300.00000000 337.75169913 358.60704039 366.40231055 366.40231055 358.60704039 337.75169913 300.00000000 300.00000000 300.00000000 300.00000000 300.00000000 300.00000000 300.00000000 300.00000000 300.00000000 300.00000000 300.00000000 300.00000000 300.00000000 300.00000000 300.00000000 300.00000000 300.00000000 300.00000000 300.00000000 300.00000000 300.00000000 300.00000000 300.00000000 300.00000000 300.00000000 300.00000000 300.00000000 300.00000000 300.00000000 338.90566392 368.24614268 385.78654435 397.17595256 407.55478574 425.32546364 440.10033334 447.33810840 447.33810840 440.10033334 425.32546364 407.55478574 397.17595256 385.78654435 368.24614268 338.90566392 300.00000000 300.00000000 300.00000000 300.00000000 300.00000000 300.00000000 300.00000000 300.00000000 300.00000000 300.00000000 300.00000000 300.00000000 300.00000000 300.00000000 300.00000000 300.00000000 300.00000000 300.00000000 300.00000000 300.00000000 300.00000000 300.00000000 356.73730301 388.81515891 421.11409615 450.29131415 471.86686583 487.29503604 499.67857481 511.84452557 521.73176710 526.99243627 526.99243627 521.73176710 511.84452557 499.67857481 487.29503604 471.86686583 450.29131415 421.11409615 388.81515891 356.73730301 300.00000000 300.00000000 300.00000000 300.00000000 300.00000000 300.00000000 300.00000000 300.00000000 300.00000000 300.00000000 300.00000000 300.00000000 300.00000000 300.00000000 300.00000000 300.00000000 300.00000000 300.00000000 351.88605552 389.72858650 434.69414968 471.24064186 502.12999989 527.92539385 547.60724655 561.98539689 572.85290612 581.66108698 588.22271512 591.71298197 591.71298197 588.22271512 581.66108698 572.85290612 561.98539689 547.60724655 527.92539385 502.12999989 471.24064186 434.69414968 389.72858650 351.88605552 300.00000000 300.00000000 300.00000000 300.00000000 300.00000000 300.00000000 300.00000000 300.00000000 300.00000000 300.00000000 300.00000000 300.00000000 300.00000000 300.00000000 300.00000000 364.77961694 420.34148070 467.05821947 508.78663382 542.64776452 569.33775546 589.99158972 605.27873060 616.23987340 624.16155894 630.02885837 634.10931481 636.22973357 636.22973357 634.10931481 630.02885837 624.16155894 616.23987340 605.27873060 589.99158972 569.33775546 542.64776452 508.78663382 467.05821947 420.34148070 364.77961694 300.00000000 300.00000000 300.00000000 300.00000000 300.00000000 300.00000000 300.00000000 300.00000000 300.00000000 300.00000000 300.00000000 300.00000000 331.60325265 377.06079576 435.30375645 488.92071960 533.83516092 570.11501157 597.85158273 618.31473547 633.08632434 643.48017073 650.65436926 655.62004813 659.09146309 661.38712189 662.54994630 662.54994630 661.38712189 659.09146309 655.62004813 650.65436926 643.48017073 633.08632434 618.31473547 597.85158273 570.11501157 533.83516092 488.92071960 435.30375645 377.06079576 331.60325265 300.00000000 300.00000000 300.00000000 300.00000000 300.00000000 300.00000000 300.00000000 300.00000000 300.00000000 300.00000000 375.95451069 439.93533533 498.43966174 547.81888668 586.57067908 615.41280362 635.89288903 649.95366049 659.41468320 665.68729883 669.81232328 672.54158797 674.36213032 675.51860332 676.09076712 676.09076712 675.51860332 674.36213032 672.54158797 669.81232328 665.68729883 659.41468320 649.95366049 635.89288903 615.41280362 586.57067908 547.81888668 498.43966174 439.93533533 375.95451069 300.00000000 300.00000000 300.00000000 300.00000000 300.00000000 300.00000000 300.00000000 300.00000000 300.00000000 360.82019794 430.66797632 495.44888002 550.41605676 593.26264458 624.30536214 645.53621645 659.42028862 668.22663633 673.72293606 677.13262145 679.25300534 680.58948533 681.44266070 681.96565229 682.21883152 682.21883152 681.96565229 681.44266070 680.58948533 679.25300534 677.13262145 673.72293606 668.22663633 659.42028862 645.53621645 624.30536214 593.26264458 550.41605676 495.44888002 430.66797632 360.82019794 300.00000000 300.00000000 300.00000000 300.00000000 300.00000000 300.00000000 300.00000000 344.00122405 408.56513116 477.83646351 540.02005434 589.48092186 625.14708826 648.88540858 663.73040955 672.60213042 677.75560867 680.71459472 682.41751630 683.41086935 684.00425246 684.36643160 684.58092847 684.68260217 684.68260217 684.58092847 684.36643160 684.00425246 683.41086935 682.41751630 680.71459472 677.75560867 672.60213042 663.73040955 648.88540858 625.14708826 589.48092186 540.02005434 477.83646351 408.56513116 344.00122405 300.00000000 300.00000000 300.00000000 300.00000000 300.00000000 300.00000000 368.71543242 442.31245026 512.86583314 572.08596591 616.09950867 645.51622818 663.50955455 673.77548593 679.34737093 682.28326775 683.81645753 684.62517965 685.06276395 685.30848060 685.45129881 685.53293108 685.57081447 685.57081447 685.53293108 685.45129881 685.30848060 685.06276395 684.62517965 683.81645753 682.28326775 679.34737093 673.77548593 663.50955455 645.51622818 616.09950867 572.08596591 512.86583314 442.31245026 368.71543242 300.00000000 300.00000000 300.00000000 300.00000000 300.00000000 300.00000000 384.29241756 464.16297507 535.54405161 592.26159304 632.11517049 657.11550743 671.33118473 678.79284436 682.48227853 684.23998380 685.06728216 685.46196253 685.65720694 685.75903720 685.81500846 685.84582273 685.85982899 685.85982899 685.84582273 685.81500846 685.75903720 685.65720694 685.46196253 685.06728216 684.23998380 682.48227853 678.79284436 671.33118473 657.11550743 632.11517049 592.26159304 535.54405161 464.16297507 384.29241756 300.00000000 300.00000000 300.00000000 300.00000000 300.00000000 325.37849732 397.06584013 475.92147103 546.78364361 601.91436567 639.52281859 662.27432875 674.65555892 680.81862860 683.67858545 684.94360182 685.49132526 685.73063067 685.83939927 685.89213175 685.91957880 685.93419511 685.94073537 685.94073537 685.93419511 685.91957880 685.89213175 685.83939927 685.73063067 685.49132526 684.94360182 683.67858545 680.81862860 674.65555892 662.27432875 639.52281859 601.91436567 546.78364361 475.92147103 397.06584013 325.37849732 300.00000000 300.00000000 300.00000000 300.00000000 325.37849732 397.06584013 475.92147103 546.78364361 601.91436567 639.52281859 662.27432875 674.65555892 680.81862860 683.67858545 684.94360182 685.49132526 685.73063067 685.83939927 685.89213175 685.91957880 685.93419511 685.94073537 685.94073537 685.93419511 685.91957880 685.89213175 685.83939927 685.73063067 685.49132526 684.94360182 683.67858545 680.81862860 674.65555892 662.27432875 639.52281859 601.91436567 546.78364361 475.92147103 397.06584013 325.37849732 300.00000000 300.00000000 300.00000000 300.00000000 300.00000000 384.29241756 464.16297507 535.54405161 592.26159304 632.11517049 657.11550743 671.33118473 678.79284436 682.48227853 684.23998380 685.06728216 685.46196253 685.65720694 685.75903720 685.81500846 685.84582273 685.85982899 685.85982899 685.84582273 685.81500846 685.75903720 685.65720694 685.46196253 685.06728216 684.23998380 682.48227853 678.79284436 671.33118473 657.11550743 632.11517049 592.26159304 535.54405161 464.16297507 384.29241756 300.00000000 300.00000000 300.00000000 300.00000000 300.00000000 300.00000000 368.71543242 442.31245026 512.86583314 572.08596591 616.09950867 645.51622818 663.50955455 673.77548593 679.34737093 682.28326775 683.81645753 684.62517965 685.06276395 685.30848060 685.45129881 685.53293108 685.57081447 685.57081447 685.53293108 685.45129881 685.30848060 685.06276395 684.62517965 683.81645753 682.28326775 679.34737093 673.77548593 663.50955455 645.51622818 616.09950867 572.08596591 512.86583314 442.31245026 368.71543242 300.00000000 300.00000000 300.00000000 300.00000000 300.00000000 300.00000000 344.00122405 408.56513116 477.83646351 540.02005434 589.48092186 625.14708826 648.88540858 663.73040955 672.60213042 677.75560867 680.71459472 682.41751630 683.41086935 684.00425246 684.36643160 684.58092847 684.68260217 684.68260217 684.58092847 684.36643160 684.00425246 683.41086935 682.41751630 680.71459472 677.75560867 672.60213042 663.73040955 648.88540858 625.14708826 589.48092186 540.02005434 477.83646351 408.56513116 344.00122405 300.00000000 300.00000000 300.00000000 300.00000000 300.00000000 300.00000000 300.00000000 360.82019794 430.66797632 495.44888002 550.41605676 593.26264458 624.30536214 645.53621645 659.42028862 668.22663633 673.72293606 677.13262145 679.25300534 680.58948533 681.44266070 681.96565229 682.21883152 682.21883152 681.96565229 681.44266070 680.58948533 679.25300534 677.13262145 673.72293606 668.22663633 659.42028862 645.53621645 624.30536214 593.26264458 550.41605676 495.44888002 430.66797632 360.82019794 300.00000000 300.00000000 300.00000000 300.00000000 300.00000000 300.00000000 300.00000000 300.00000000 300.00000000 375.95451069 439.93533533 498.43966174 547.81888668 586.57067908 615.41280362 635.89288903 649.95366049 659.41468320 665.68729883 669.81232328 672.54158797 674.36213032 675.51860332 676.09076712 676.09076712 675.51860332 674.36213032 672.54158797 669.81232328 665.68729883 659.41468320 649.95366049 635.89288903 615.41280362 586.57067908 547.81888668 498.43966174 439.93533533 375.95451069 300.00000000 300.00000000 300.00000000 300.00000000 300.00000000 300.00000000 300.00000000 300.00000000 300.00000000 300.00000000 331.60325265 377.06079576 435.30375645 488.92071960 533.83516092 570.11501157 597.85158273 618.31473547 633.08632434 643.48017073 650.65436926 655.62004813 659.09146309 661.38712189 662.54994630 662.54994630 661.38712189 659.09146309 655.62004813 650.65436926 643.48017073 633.08632434 618.31473547 597.85158273 570.11501157 533.83516092 488.92071960 435.30375645 377.06079576 331.60325265 300.00000000 300.00000000 300.00000000 300.00000000 300.00000000 300.00000000 300.00000000 300.00000000 300.00000000 300.00000000 300.00000000 300.00000000 364.77961694 420.34148070 467.05821947 508.78663382 542.64776452 569.33775546 589.99158972 605.27873060 616.23987340 624.16155894 630.02885837 634.10931481 636.22973357 636.22973357 634.10931481 630.02885837 624.16155894 616.23987340 605.27873060 589.99158972 569.33775546 542.64776452 508.78663382 467.05821947 420.34148070 364.77961694 300.00000000 300.00000000 300.00000000 300.00000000 300.00000000 300.00000000 300.00000000 300.00000000 300.00000000 300.00000000 300.00000000 300.00000000 300.00000000 300.00000000 300.00000000 351.88605552 389.72858650 434.69414968 471.24064186 502.12999989 527.92539385 547.60724655 561.98539689 572.85290612 581.66108698 588.22271512 591.71298197 591.71298197 588.22271512 581.66108698 572.85290612 561.98539689 547.60724655 527.92539385 502.12999989 471.24064186 434.69414968 389.72858650 351.88605552 300.00000000 300.00000000 300.00000000 300.00000000 300.00000000 300.00000000 300.00000000 300.00000000 300.00000000 300.00000000 300.00000000 300.00000000 300.00000000 300.00000000 300.00000000 300.00000000 300.00000000 300.00000000 356.73730301 388.81515891 421.11409615 450.29131415 471.86686583 487.29503604 499.67857481 511.84452557 521.73176710 526.99243627 526.99243627 521.73176710 511.84452557 499.67857481 487.29503604 471.86686583 450.29131415 421.11409615 388.81515891 356.73730301 300.00000000 300.00000000 300.00000000 300.00000000 300.00000000 300.00000000 300.00000000 300.00000000 300.00000000 300.00000000 300.00000000 300.00000000 300.00000000 300.00000000 300.00000000 300.00000000 300.00000000 300.00000000 300.00000000 300.00000000 300.00000000 300.00000000 338.90566392 368.24614268 385.78654435 397.17595256 407.55478574 425.32546364 440.10033334 447.33810840 447.33810840 440.10033334 425.32546364 407.55478574 397.17595256 385.78654435 368.24614268 338.90566392 300.00000000 300.00000000 300.00000000 300.00000000 300.00000000 300.00000000 300.00000000 300.00000000 300.00000000 300.00000000 300.00000000 300.00000000 300.00000000 300.00000000 300.00000000 300.00000000 300.00000000 300.00000000 300.00000000 300.00000000 300.00000000 300.00000000 300.00000000 300.00000000 300.00000000 300.00000000 300.00000000 300.00000000 300.00000000 337.75169913 358.60704039 366.40231055 366.40231055 358.60704039 337.75169913 300.00000000 300.00000000 300.00000000 300.00000000 300.00000000 300.00000000 300.00000000 300.00000000 300.00000000 300.00000000 300.00000000 300.00000000 300.00000000 300.00000000 300.00000000 300.00000000 300.00000000 300.00000000 300.00000000 300.00000000 300.00000000 300.00000000 300.00000000 300.00000000 300.00000000 300.00000000 300.00000000 300.00000000 300.00000000 300.00000000 300.00000000 300.00000000 300.00000000 300.00000000 300.00000000 300.00000000 300.00000000 300.00000000 300.00000000 300.00000000 300.00000000 300.00000000 300.00000000 300.00000000 300.00000000 300.00000000 300.00000000 300.00000000 300.00000000 300.00000000 300.00000000 300.00000000 300.00000000 300.00000000 300.00000000 300.00000000 300.00000000 300.00000000 300.00000000 300.00000000 300.00000000 300.00000000 300.00000000 300.00000000 300.00000000 300.00000000 300.00000000 300.00000000 300.00000000 300.00000000 300.00000000 300.00000000 300.00000000 300.00000000 300.00000000 300.00000000 300.00000000 300.00000000 300.00000000 300.00000000 300.00000000 300.00000000 300.00000000 300.00000000 300.00000000 300.00000000 300.00000000 300.00000000 300.00000000 300.00000000 300.00000000 300.00000000 300.00000000 300.00000000 300.00000000 300.00000000 300.00000000 300.00000000 300.00000000 300.00000000 300.00000000 300.00000000 300.00000000 300.00000000 300.00000000 300.00000000 300.00000000 300.00000000 300.00000000 300.00000000 300.00000000 300.00000000 300.00000000 300.00000000 300.00000000 300.00000000 300.00000000 300.00000000 300.00000000 300.00000000 300.00000000 300.00000000 300.00000000 300.00000000 300.00000000 300.00000000 300.00000000 300.00000000 300.00000000 300.00000000 300.00000000 300.00000000 300.00000000 300.00000000 300.00000000 300.00000000 300.00000000 300.00000000 300.00000000 300.00000000 300.00000000 300.00000000 300.00000000 300.00000000 300.00000000 300.00000000 300.00000000 300.00000000 300.00000000 300.00000000 300.00000000 300.00000000 300.00000000 300.00000000 300.00000000 300.00000000 300.00000000 300.00000000 300.00000000 300.00000000 300.00000000 300.00000000 300.00000000 300.00000000 300.00000000 300.00000000 300.00000000 300.00000000 300.00000000 300.00000000 300.00000000 300.00000000 300.00000000 300.00000000 300.00000000 300.00000000 300.00000000 300.00000000 300.00000000 300.00000000 300.00000000 300.00000000 300.00000000 300.00000000 300.00000000 300.00000000 300.00000000 300.00000000 300.00000000 300.00000000 300.00000000 300.00000000 300.00000000 300.00000000 300.00000000 300.00000000 300.00000000 300.00000000 300.00000000 300.00000000 300.00000000 300.00000000 300.00000000 300.00000000 300.00000000 300.00000000 300.00000000 300.00000000 300.00000000 300.00000000 300.00000000 300.00000000 300.00000000 300.00000000 300.00000000 300.00000000 300.00000000 300.00000000 300.00000000 300.00000000 300.00000000 300.00000000 300.00000000 300.00000000 300.00000000 300.00000000 300.00000000 300.00000000 300.00000000 300.00000000 300.00000000 300.00000000 300.00000000 300.00000000 300.00000000 300.00000000 300.00000000 300.00000000 300.00000000 300.00000000 300.00000000 300.00000000 300.00000000 300.00000000 300.00000000 300.00000000 300.00000000 300.00000000 300.00000000 300.00000000 300.00000000 300.00000000 300.00000000 300.00000000 300.00000000 300.00000000 300.00000000 300.00000000 300.00000000 300.00000000 300.00000000 300.00000000 300.00000000 300.00000000 300.00000000 300.00000000 300.00000000 300.00000000 300.00000000 300.00000000 300.00000000 300.00000000 300.00000000 300.00000000 300.00000000 300.00000000 300.00000000 300.00000000 300.00000000 300.00000000 300.00000000 300.00000000 300.00000000 300.00000000 300.00000000 300.00000000 300.00000000 300.00000000 300.00000000 300.00000000 300.00000000 300.00000000 300.00000000 300.00000000 300.00000000 300.00000000 300.00000000 300.00000000 300.00000000 300.00000000 300.00000000 300.00000000 300.00000000 300.00000000 300.00000000 300.00000000 300.00000000 300.00000000 300.00000000 300.00000000 300.00000000 300.00000000 300.00000000 300.00000000 300.00000000 300.00000000 300.00000000 300.00000000 300.00000000 300.00000000 300.00000000 300.00000000 300.00000000 300.00000000 300.00000000 300.00000000 300.00000000 300.00000000 300.00000000 300.00000000 300.00000000 300.00000000 300.00000000 300.00000000 300.00000000 300.00000000 300.00000000 