# vtk DataFile Version 3.0
VTK - Matlab export
ASCII
DATASET STRUCTURED_POINTS
DIMENSIONS 40 40 1
SPACING 1 1 1
ORIGIN 0 0 0
POINT_DATA 1600
SCALARS Temperature float 1
LOOKUP_TABLE default
300.00000000 300.00000000 300.00000000 300.00000000 300.00000000 300.00000000 300.00000000 300.00000000 300.00000000 300.00000000 300.00000000 300.00000000 300.00000000 300.00000000 300.00000000 300.00000000 300.00000000 300.00000000 300.00000000 300.00000000 300.00000000 300.00000000 300.00000000 300.00000000 300.00000000 300.00000000 300.00000000 300.00000000 300.00000000 300.00000000 300.00000000 300.00000000 300.00000000 300.00000000 300.00000000 300.00000000 300.00000000 300.00000000 300.00000000 300.00000000 300.00000000 300.00000000 300.00000000 300.00000000 300.00000000 300.00000000 300.00000000 300.00000000 300.00000000 300.00000000 300.00000000 300.00000000 300.00000000 300.00000000 300.00000000 300.00000000 300.00000000 300.00000000 300.00000000 300.00000000 300.00000000 300.00000000 300.00000000 300.00000000 300.00000000 300.00000000 300.00000000 300.00000000 300.00000000 300.00000000 300.00000000 300.00000000 300.00000000 300.00000000 300.00000000 300.00000000 300.00000000 300.00000000 300.00000000 300.00000000 300.00000000 300.00000000 300.00000000 300.00000000 300.00000000 300.00000000 300.00000000 300.00000000 300.00000000 300.00000000 300.00000000 300.00000000 300.00000000 300.00000000 300.00000000 300.00000000 300.00000000 300.00000000 300.00000000 300.00000000 300.00000000 300.00000000 300.00000000 300.00000000 300.00000000 300.00000000 300.00000000 300.00000000 300.00000000 300.00000000 300.00000000 300.00000000 300.00000000 300.00000000 300.00000000 300.00000000 300.00000000 300.00000000 300.00000000 300.00000000 300.00000000 300.00000000 300.00000000 300.00000000 300.00000000 300.00000000 300.00000000 300.00000000 300.00000000 300.00000000 300.00000000 300.00000000 300.00000000 300.00000000 300.00000000 300.00000000 300.00000000 300.00000000 300.00000000 300.00000000 300.00000000 300.00000000 300.00000000 300.00000000 300.00000000 300.00000000 300.00000000 300.00000000 300.00000000 300.00000000 300.00000000 300.00000000 300.00000000 300.00000000 300.00000000 300.00000000 300.00000000 300.00000000 300.00000000 300.00000000 300.00000000 300.00000000 300.00000000 300.00000000 300.00000000 300.00000000 300.00000000 300.00000000 300.00000000 300.00000000 300.00000000 300.00000000 300.00000000 300.00000000 300.00000000 300.00000000 300.00000000 300.00000000 300.00000000 300.00000000 300.00000000 300.00000000 300.00000000 300.00000000 300.00000000 300.00000000 300.00000000 300.00000000 300.00000000 300.00000000 300.00000000 300.00000000 300.00000000 300.00000000 300.00000000 300.00000000 300.00000000 300.00000000 300.00000000 300.00000000 300.00000000 300.00000000 300.00000000 300.00000000 300.00000000 300.00000000 300.00000000 300.00000000 300.00000000 300.00000000 300.00000000 300.00000000 300.00000000 300.00000000 300.00000000 300.00000000 300.00000000 300.00000000 300.00000000 300.00000000 300.00000000 300.00000000 300.00000000 300.00000000 300.00000000 300.00000000 300.00000000 300.00000000 300.00000000 300.00000000 300.00000000 300.00000000 300.00000000 300.00000000 300.00000000 300.00000000 300.00000000 300.00000000 300.00000000 300.00000000 300.00000000 300.00000000 300.00000000 300.00000000 300.00000000 300.00000000 300.00000000 300.00000000 300.00000000 300.00000000 300.00000000 300.00000000 300.00000000 300.00000000 300.00000000 300.00000000 300.00000000 300.00000000 300.00000000 300.00000000 300.00000000 300.00000000 300.00000000 300.00000000 300.00000000 300.00000000 300.00000000 300.00000000 300.00000000 300.00000000 300.00000000 300.00000000 300.00000000 300.00000000 300.00000000 300.00000000 300.00000000 300.00000000 300.00000000 300.00000000 300.00000000 300.00000000 300.00000000 300.00000000 300.00000000 300.00000000 300.00000000 300.00000000 300.00000000 300.00000000 300.00000000 300.00000000 300.00000000 300.00000000 300.00000000 300.00000000 300.00000000 300.00000000 300.00000000 300.00000000 300.00000000 300.00000000 300.00000000 300.00000000 300.00000000 300.00000000 300.00000000 300.00000000 300.00000000 300.00000000 300.00000000 300.00000000 300.00000000 300.00000000 300.00000000 300.00000000 300.00000000 300.00000000 300.00000000 300.00000000 300.00000000 300.00000000 300.00000000 300.00000000 300.00000000 300.00000000 300.00000000 300.00000000 300.00000000 300.00000000 300.00000000 300.00000000 300.00000000 300.00000000 300.00000000 300.00000000 300.00000000 312.88493090 319.80230895 322.33498278 322.33498278 319.80230895 312.88493090 300.00000000 300.00000000 300.00000000 300.00000000 300.00000000 300.00000000 300.00000000 300.00000000 300.00000000 300.00000000 300.00000000 300.00000000 300.00000000 300.00000000 300.00000000 300.00000000 300.00000000 300.00000000 300.00000000 300.00000000 300.00000000 300.00000000 300.00000000 300.00000000 300.00000000 300.00000000 300.00000000 300.00000000 300.00000000 312.68006945 322.51958328 328.86102098 333.40864768 337.60966021 344.03522094 349.17367771 351.65546752 351.65546752 349.17367771 344.03522094 337.60966021 333.40864768 328.86102098 322.51958328 312.68006945 300.00000000 300.00000000 300.00000000 300.00000000 300.00000000 300.00000000 300.00000000 300.00000000 300.00000000 300.00000000 300.00000000 300.00000000 300.00000000 300.00000000 300.00000000 300.00000000 300.00000000 300.00000000 300.00000000 300.00000000 300.00000000 300.00000000 317.90851935 328.72346235 340.23241593 351.25158966 360.24869770 367.44238127 373.49120160 379.02154128 383.24898689 385.44477640 385.44477640 383.24898689 379.02154128 373.49120160 367.44238127 360.24869770 351.25158966 340.23241593 328.72346235 317.90851935 300.00000000 300.00000000 300.00000000 300.00000000 300.00000000 300.00000000 300.00000000 300.00000000 300.00000000 300.00000000 300.00000000 300.00000000 300.00000000 300.00000000 300.00000000 300.00000000 300.00000000 300.00000000 315.67153509 327.96933012 343.42223834 357.38894105 370.53813138 382.70742770 393.23447406 401.99165160 409.15410961 414.87271359 418.92725722 421.01874626 421.01874626 418.92725722 414.87271359 409.15410961 401.99165160 393.23447406 382.70742770 370.53813138 357.38894105 343.42223834 327.96933012 315.67153509 300.00000000 300.00000000 300.00000000 300.00000000 300.00000000 300.00000000 300.00000000 300.00000000 300.00000000 300.00000000 300.00000000 300.00000000 300.00000000 300.00000000 300.00000000 319.12488168 336.81653253 353.57354534 370.50868991 386.51115862 401.32224191 414.72224201 426.38601204 436.16662280 444.07228069 450.12806073 454.26121639 456.35919888 456.35919888 454.26121639 450.12806073 444.07228069 436.16662280 426.38601204 414.72224201 401.32224191 386.51115862 370.50868991 353.57354534 336.81653253 319.12488168 300.00000000 300.00000000 300.00000000 300.00000000 300.00000000 300.00000000 300.00000000 300.00000000 300.00000000 300.00000000 300.00000000 300.00000000 308.59061314 321.80659358 340.23574975 359.56166071 378.75366501 397.48179897 415.13805163 431.33588181 445.80825363 458.33747259 468.80956174 477.20271032 483.52552991 487.76612992 489.89599273 489.89599273 487.76612992 483.52552991 477.20271032 468.80956174 458.33747259 445.80825363 431.33588181 415.13805163 397.48179897 378.75366501 359.56166071 340.23574975 321.80659358 308.59061314 300.00000000 300.00000000 300.00000000 300.00000000 300.00000000 300.00000000 300.00000000 300.00000000 300.00000000 300.00000000 320.55530710 339.85155622 360.49399669 381.73224587 402.80657201 423.12152078 442.12650075 459.41573425 474.71728644 487.86140607 498.77354802 507.45154214 513.92610564 518.22756107 520.37420349 520.37420349 518.22756107 513.92610564 507.45154214 498.77354802 487.86140607 474.71728644 459.41573425 442.12650075 423.12152078 402.80657201 381.73224587 360.49399669 339.85155622 320.55530710 300.00000000 300.00000000 300.00000000 300.00000000 300.00000000 300.00000000 300.00000000 300.00000000 300.00000000 315.56496871 335.20587807 356.56291497 379.10258983 402.06635702 424.69267812 446.31442657 466.37890089 484.48247223 500.36849015 513.90455663 525.05732203 533.86082189 540.38071871 544.68429867 546.82260620 546.82260620 544.68429867 540.38071871 533.86082189 525.05732203 513.90455663 500.36849015 484.48247223 466.37890089 446.31442657 424.69267812 402.06635702 379.10258983 356.56291497 335.20587807 315.56496871 300.00000000 300.00000000 300.00000000 300.00000000 300.00000000 300.00000000 300.00000000 310.64525714 327.45980284 348.15325512 371.06942718 395.17410014 419.56924546 443.43873311 466.07996070 486.93474536 505.60932721 521.87018316 535.62057670 546.86759757 555.68453198 562.17356682 566.43479239 568.54488430 568.54488430 566.43479239 562.17356682 555.68453198 546.86759757 535.62057670 521.87018316 505.60932721 486.93474536 466.07996070 443.43873311 419.56924546 395.17410014 371.06942718 348.15325512 327.45980284 310.64525714 300.00000000 300.00000000 300.00000000 300.00000000 300.00000000 300.00000000 316.52833316 335.97357356 358.26944919 382.56598750 407.92390371 433.42591483 458.22859036 481.61198269 503.01700766 522.06258361 538.53894550 552.38143192 563.63280784 572.40141543 578.82138631 583.01980724 585.09321591 585.09321591 583.01980724 578.82138631 572.40141543 563.63280784 552.38143192 538.53894550 522.06258361 503.01700766 481.61198269 458.22859036 433.42591483 407.92390371 382.56598750 358.26944919 335.97357356 316.52833316 300.00000000 300.00000000 300.00000000 300.00000000 300.00000000 300.00000000 320.24656039 341.63330452 365.20171470 390.51788469 416.75607776 443.01332679 468.43763244 492.30218296 514.04999067 533.31137061 549.89566491 563.76262965 574.98168070 583.68720993 590.03675633 594.17665705 596.21721297 596.21721297 594.17665705 590.03675633 583.68720993 574.98168070 563.76262965 549.89566491 533.31137061 514.04999067 492.30218296 468.43763244 443.01332679 416.75607776 390.51788469 365.20171470 341.63330452 320.24656039 300.00000000 300.00000000 300.00000000 300.00000000 300.00000000 305.91838588 323.23316733 344.69914783 368.76867054 394.58782110 421.27350749 447.91249606 473.64695439 497.74730126 519.65843158 539.01731698 555.64389247 569.51111755 580.70265392 589.36673507 595.67323485 599.77850726 601.79992082 601.79992082 599.77850726 595.67323485 589.36673507 580.70265392 569.51111755 555.64389247 539.01731698 519.65843158 497.74730126 473.64695439 447.91249606 421.27350749 394.58782110 368.76867054 344.69914783 323.23316733 305.91838588 300.00000000 300.00000000 300.00000000 300.00000000 305.91838588 323.23316733 344.69914783 368.76867054 394.58782110 421.27350749 447.91249606 473.64695439 497.74730126 519.65843158 539.01731698 555.64389247 569.51111755 580.70265392 589.36673507 595.67323485 599.77850726 601.79992082 601.79992082 599.77850726 595.67323485 589.36673507 580.70265392 569.51111755 555.64389247 539.01731698 519.65843158 497.74730126 473.64695439 447.91249606 421.27350749 394.58782110 368.76867054 344.69914783 323.23316733 305.91838588 300.00000000 300.00000000 300.00000000 300.00000000 300.00000000 320.24656039 341.63330452 365.20171470 390.51788469 416.75607776 443.01332679 468.43763244 492.30218296 514.04999067 533.31137061 549.89566491 563.76262965 574.98168070 583.68720993 590.03675633 594.17665705 596.21721297 596.21721297 594.17665705 590.03675633 583.68720993 574.98168070 563.76262965 549.89566491 533.31137061 514.04999067 492.30218296 468.43763244 443.01332679 416.75607776 390.51788469 365.20171470 341.63330452 320.24656039 300.00000000 300.00000000 300.00000000 300.00000000 300.00000000 300.00000000 316.52833316 335.97357356 358.26944919 382.56598750 407.92390371 433.42591483 458.22859036 481.61198269 503.01700766 522.06258361 538.53894550 552.38143192 563.63280784 572.40141543 578.82138631 583.01980724 585.09321591 585.09321591 583.01980724 578.82138631 572.40141543 563.63280784 552.38143192 538.53894550 522.06258361 503.01700766 481.61198269 458.22859036 433.42591483 407.92390371 382.56598750 358.26944919 335.97357356 316.52833316 300.00000000 300.00000000 300.00000000 300.00000000 300.00000000 300.00000000 310.64525714 327.45980284 348.15325512 371.06942718 395.17410014 419.56924546 443.43873311 466.07996070 486.93474536 505.60932721 521.87018316 535.62057670 546.86759757 555.68453198 562.17356682 566.43479239 568.54488430 568.54488430 566.43479239 562.17356682 555.68453198 546.86759757 535.62057670 521.87018316 505.60932721 486.93474536 466.07996070 443.43873311 419.56924546 395.17410014 371.06942718 348.15325512 327.45980284 310.64525714 300.00000000 300.00000000 300.00000000 300.00000000 300.00000000 300.00000000 300.00000000 315.56496871 335.20587807 356.56291497 379.10258983 402.06635702 424.69267812 446.31442657 466.37890089 484.48247223 500.36849015 513.90455663 525.05732203 533.86082189 540.38071871 544.68429867 546.82260620 546.82260620 544.68429867 540.38071871 533.86082189 525.05732203 513.90455663 500.36849015 484.48247223 466.37890089 446.31442657 424.69267812 402.06635702 379.10258983 356.56291497 335.20587807 315.56496871 300.00000000 300.00000000 300.00000000 300.00000000 300.00000000 300.00000000 300.00000000 300.00000000 300.00000000 320.55530710 339.85155622 360.49399669 381.73224587 402.80657201 423.12152078 442.12650075 459.41573425 474.71728644 487.86140607 498.77354802 507.45154214 513.92610564 518.22756107 520.37420349 520.37420349 518.22756107 513.92610564 507.45154214 498.77354802 487.86140607 474.71728644 459.41573425 442.12650075 423.12152078 402.80657201 381.73224587 360.49399669 339.85155622 320.55530710 300.00000000 300.00000000 300.00000000 300.00000000 300.00000000 300.00000000 300.00000000 300.00000000 300.00000000 300.00000000 308.59061314 321.80659358 340.23574975 359.56166071 378.75366501 397.48179897 415.13805163 431.33588181 445.80825363 458.33747259 468.80956174 477.20271032 483.52552991 487.76612992 489.89599273 489.89599273 487.76612992 483.52552991 477.20271032 468.80956174 458.33747259 445.80825363 431.33588181 415.13805163 397.48179897 378.75366501 359.56166071 340.23574975 321.80659358 308.59061314 300.00000000 300.00000000 300.00000000 300.00000000 300.00000000 300.00000000 300.00000000 300.00000000 300.00000000 300.00000000 300.00000000 300.00000000 319.12488168 336.81653253 353.57354534 370.50868991 386.51115862 401.32224191 414.72224201 426.38601204 436.16662280 444.07228069 450.12806073 454.26121639 456.35919888 456.35919888 454.26121639 450.12806073 444.07228069 436.16662280 426.38601204 414.72224201 401.32224191 386.51115862 370.50868991 353.57354534 336.81653253 319.12488168 300.00000000 300.00000000 300.00000000 300.00000000 300.00000000 300.00000000 300.00000000 300.00000000 300.00000000 300.00000000 300.00000000 300.00000000 300.00000000 300.00000000 300.00000000 315.67153509 327.96933012 343.42223834 357.38894105 370.53813138 382.70742770 393.23447406 401.99165160 409.15410961 414.87271359 418.92725722 421.01874626 421.01874626 418.92725722 414.87271359 409.15410961 401.99165160 393.23447406 382.70742770 370.53813138 357.38894105 343.42223834 327.96933012 315.67153509 300.00000000 300.00000000 300.00000000 300.00000000 300.00000000 300.00000000 300.00000000 300.00000000 300.00000000 300.00000000 300.00000000 300.00000000 300.00000000 300.00000000 300.00000000 300.00000000 300.00000000 300.00000000 317.90851935 328.72346235 340.23241593 351.25158966 360.24869770 367.44238127 373.49120160 379.02154128 383.24898689 385.44477640 385.44477640 383.24898689 379.02154128 373.49120160 367.44238127 360.24869770 351.25158966 340.23241593 328.72346235 317.90851935 300.00000000 300.00000000 300.00000000 300.00000000 300.00000000 300.00000000 300.00000000 300.00000000 300.00000000 300.00000000 300.00000000 300.00000000 300.00000000 300.00000000 300.00000000 300.00000000 300.00000000 300.00000000 300.00000000 300.00000000 300.00000000 300.00000000 312.68006945 322.51958328 328.86102098 333.40864768 337.60966021 344.03522094 349.17367771 351.65546752 351.65546752 349.17367771 344.03522094 337.60966021 333.40864768 328.86102098 322.51958328 312.68006945 300.00000000 300.00000000 300.00000000 300.00000000 300.00000000 300.00000000 300.00000000 300.00000000 300.00000000 300.00000000 300.00000000 300.00000000 300.00000000 300.00000000 300.00000000 300.00000000 300.00000000 300.00000000 300.00000000 300.00000000 300.00000000 300.00000000 300.00000000 300.00000000 300.00000000 300.00000000 300.00000000 300.00000000 300.00000000 312.88493090 319.80230895 322.33498278 322.33498278 319.80230895 312.88493090 300.00000000 300.00000000 300.00000000 300.00000000 300.00000000 300.00000000 300.00000000 300.00000000 300.00000000 300.00000000 300.00000000 300.00000000 300.00000000 300.00000000 300.00000000 300.00000000 300.00000000 300.00000000 300.00000000 300.00000000 300.00000000 300.00000000 300.00000000 300.00000000 300.00000000 300.00000000 300.00000000 300.00000000 300.00000000 300.00000000 300.00000000 300.00000000 300.00000000 300.00000000 300.00000000 300.00000000 300.00000000 300.00000000 300.00000000 300.00000000 300.00000000 300.00000000 300.00000000 300.00000000 300.00000000 300.00000000 300.00000000 300.00000000 300.00000000 300.00000000 300.00000000 300.00000000 300.00000000 300.00000000 300.00000000 300.00000000 300.00000000 300.00000000 300.00000000 300.00000000 300.00000000 300.00000000 300.00000000 300.00000000 300.00000000 300.00000000 300.00000000 300.00000000 300.00000000 300.00000000 300.00000000 300.00000000 300.00000000 300.00000000 300.00000000 300.00000000 300.00000000 300.00000000 300.00000000 300.00000000 300.00000000 300.00000000 300.00000000 300.00000000 300.00000000 300.00000000 300.00000000 300.00000000 300.00000000 300.00000000 300.00000000 300.00000000 300.00000000 300.00000000 300.00000000 300.00000000 300.00000000 300.00000000 300.00000000 300.00000000 300.00000000 300.00000000 300.00000000 300.00000000 300.00000000 300.00000000 300.00000000 300.00000000 300.00000000 300.00000000 300.00000000 300.00000000 300.00000000 300.00000000 300.00000000 300.00000000 300.00000000 300.00000000 300.00000000 300.00000000 300.00000000 300.00000000 300.00000000 300.00000000 300.00000000 300.00000000 300.00000000 300.00000000 300.00000000 300.00000000 300.00000000 300.00000000 300.00000000 300.00000000 300.00000000 300.00000000 300.00000000 300.00000000 300.00000000 300.00000000 300.00000000 300.00000000 300.00000000 300.00000000 300.00000000 300.00000000 300.00000000 300.00000000 300.00000000 300.00000000 300.00000000 300.00000000 300.00000000 300.00000000 300.00000000 300.00000000 300.00000000 300.00000000 300.00000000 300.00000000 300.00000000 300.00000000 300.00000000 300.00000000 300.00000000 300.00000000 300.00000000 300.00000000 300.00000000 300.00000000 300.00000000 300.00000000 300.00000000 300.00000000 300.00000000 300.00000000 300.00000000 300.00000000 300.00000000 300.00000000 300.00000000 300.00000000 300.00000000 300.00000000 300.00000000 300.00000000 300.00000000 300.00000000 300.00000000 300.00000000 300.00000000 300.00000000 300.00000000 300.00000000 300.00000000 300.00000000 300.00000000 300.00000000 300.00000000 300.00000000 300.00000000 300.00000000 300.00000000 300.00000000 300.00000000 300.00000000 300.00000000 300.00000000 300.00000000 300.00000000 300.00000000 300.00000000 300.00000000 300.00000000 300.00000000 300.00000000 300.00000000 300.00000000 300.00000000 300.00000000 300.00000000 300.00000000 300.00000000 300.00000000 300.00000000 300.00000000 300.00000000 300.00000000 300.00000000 300.00000000 300.00000000 300.00000000 300.00000000 300.00000000 300.00000000 300.00000000 300.00000000 300.00000000 300.00000000 300.00000000 300.00000000 300.00000000 300.00000000 300.00000000 300.00000000 300.00000000 300.00000000 300.00000000 300.00000000 300.00000000 300.00000000 300.00000000 300.00000000 300.00000000 300.00000000 300.00000000 300.00000000 300.00000000 300.00000000 300.00000000 300.00000000 300.00000000 300.00000000 300.00000000 300.00000000 300.00000000 300.00000000 300.00000000 300.00000000 300.00000000 300.00000000 300.00000000 300.00000000 300.00000000 300.00000000 300.00000000 300.00000000 300.00000000 300.00000000 300.00000000 300.00000000 300.00000000 300.00000000 300.00000000 300.00000000 300.00000000 300.00000000 300.00000000 300.00000000 300.00000000 300.00000000 300.00000000 300.00000000 300.00000000 300.00000000 300.00000000 300.00000000 300.00000000 300.00000000 300.00000000 300.00000000 300.00000000 300.00000000 300.00000000 300.00000000 300.00000000 300.00000000 300.00000000 300.00000000 300.00000000 300.00000000 300.00000000 300.00000000 300.00000000 300.00000000 300.00000000 300.00000000 300.00000000 300.00000000 300.00000000 300.00000000 300.00000000 300.00000000 300.00000000 300.00000000 300.00000000 300.00000000 300.00000000 300.00000000 300.00000000 300.00000000 300.00000000 300.00000000 300.00000000 300.00000000 300.00000000 300.00000000 