# vtk DataFile Version 3.0
VTK - Matlab export
ASCII
DATASET STRUCTURED_POINTS
DIMENSIONS 40 40 1
SPACING 1 1 1
ORIGIN 0 0 0
POINT_DATA 1600
SCALARS Temperature float 1
LOOKUP_TABLE default
300.00000000 300.00000000 300.00000000 300.00000000 300.00000000 300.00000000 300.00000000 300.00000000 300.00000000 300.00000000 300.00000000 300.00000000 300.00000000 300.00000000 300.00000000 300.00000000 300.00000000 300.00000000 300.00000000 300.00000000 300.00000000 300.00000000 300.00000000 300.00000000 300.00000000 300.00000000 300.00000000 300.00000000 300.00000000 300.00000000 300.00000000 300.00000000 300.00000000 300.00000000 300.00000000 300.00000000 300.00000000 300.00000000 300.00000000 300.00000000 300.00000000 300.00000000 300.00000000 300.00000000 300.00000000 300.00000000 300.00000000 300.00000000 300.00000000 300.00000000 300.00000000 300.00000000 300.00000000 300.00000000 300.00000000 300.00000000 300.00000000 300.00000000 300.00000000 300.00000000 300.00000000 300.00000000 300.00000000 300.00000000 300.00000000 300.00000000 300.00000000 300.00000000 300.00000000 300.00000000 300.00000000 300.00000000 300.00000000 300.00000000 300.00000000 300.00000000 300.00000000 300.00000000 300.00000000 300.00000000 300.00000000 300.00000000 300.00000000 300.00000000 300.00000000 300.00000000 300.00000000 300.00000000 300.00000000 300.00000000 300.00000000 300.00000000 300.00000000 300.00000000 300.00000000 300.00000000 300.00000000 300.00000000 300.00000000 300.00000000 300.00000000 300.00000000 300.00000000 300.00000000 300.00000000 300.00000000 300.00000000 300.00000000 300.00000000 300.00000000 300.00000000 300.00000000 300.00000000 300.00000000 300.00000000 300.00000000 300.00000000 300.00000000 300.00000000 300.00000000 300.00000000 300.00000000 300.00000000 300.00000000 300.00000000 300.00000000 300.00000000 300.00000000 300.00000000 300.00000000 300.00000000 300.00000000 300.00000000 300.00000000 300.00000000 300.00000000 300.00000000 300.00000000 300.00000000 300.00000000 300.00000000 300.00000000 300.00000000 300.00000000 300.00000000 300.00000000 300.00000000 300.00000000 300.00000000 300.00000000 300.00000000 300.00000000 300.00000000 300.00000000 300.00000000 300.00000000 300.00000000 300.00000000 300.00000000 300.00000000 300.00000000 300.00000000 300.00000000 300.00000000 300.00000000 300.00000000 300.00000000 300.00000000 300.00000000 300.00000000 300.00000000 300.00000000 300.00000000 300.00000000 300.00000000 300.00000000 300.00000000 300.00000000 300.00000000 300.00000000 300.00000000 300.00000000 300.00000000 300.00000000 300.00000000 300.00000000 300.00000000 300.00000000 300.00000000 300.00000000 300.00000000 300.00000000 300.00000000 300.00000000 300.00000000 300.00000000 300.00000000 300.00000000 300.00000000 300.00000000 300.00000000 300.00000000 300.00000000 300.00000000 300.00000000 300.00000000 300.00000000 300.00000000 300.00000000 300.00000000 300.00000000 300.00000000 300.00000000 300.00000000 300.00000000 300.00000000 300.00000000 300.00000000 300.00000000 300.00000000 300.00000000 300.00000000 300.00000000 300.00000000 300.00000000 300.00000000 300.00000000 300.00000000 300.00000000 300.00000000 300.00000000 300.00000000 300.00000000 300.00000000 300.00000000 300.00000000 300.00000000 300.00000000 300.00000000 300.00000000 300.00000000 300.00000000 300.00000000 300.00000000 300.00000000 300.00000000 300.00000000 300.00000000 300.00000000 300.00000000 300.00000000 300.00000000 300.00000000 300.00000000 300.00000000 300.00000000 300.00000000 300.00000000 300.00000000 300.00000000 300.00000000 300.00000000 300.00000000 300.00000000 300.00000000 300.00000000 300.00000000 300.00000000 300.00000000 300.00000000 300.00000000 300.00000000 300.00000000 300.00000000 300.00000000 300.00000000 300.00000000 300.00000000 300.00000000 300.00000000 300.00000000 300.00000000 300.00000000 300.00000000 300.00000000 300.00000000 300.00000000 300.00000000 300.00000000 300.00000000 300.00000000 300.00000000 300.00000000 300.00000000 300.00000000 300.00000000 300.00000000 300.00000000 300.00000000 300.00000000 300.00000000 300.00000000 300.00000000 300.00000000 300.00000000 300.00000000 300.00000000 300.00000000 300.00000000 300.00000000 300.00000000 300.00000000 300.00000000 300.00000000 300.00000000 300.00000000 300.00000000 300.00000000 300.00000000 300.00000000 300.00000000 300.00000000 300.00000000 300.00000000 300.00000000 300.00000000 300.00000000 300.00000000 300.00000000 300.00000000 300.00000000 300.00000000 300.00000000 300.00000000 300.00000000 300.00000000 300.00000000 318.72613957 328.79443537 332.48056432 332.48056432 328.79443537 318.72613957 300.00000000 300.00000000 300.00000000 300.00000000 300.00000000 300.00000000 300.00000000 300.00000000 300.00000000 300.00000000 300.00000000 300.00000000 300.00000000 300.00000000 300.00000000 300.00000000 300.00000000 300.00000000 300.00000000 300.00000000 300.00000000 300.00000000 300.00000000 300.00000000 300.00000000 300.00000000 300.00000000 300.00000000 300.00000000 318.84608306 333.29006507 342.40365062 348.78179215 354.63447833 363.78988588 371.14408073 374.69275776 374.69275776 371.14408073 363.78988588 354.63447833 348.78179215 342.40365062 333.29006507 318.84608306 300.00000000 300.00000000 300.00000000 300.00000000 300.00000000 300.00000000 300.00000000 300.00000000 300.00000000 300.00000000 300.00000000 300.00000000 300.00000000 300.00000000 300.00000000 300.00000000 300.00000000 300.00000000 300.00000000 300.00000000 300.00000000 300.00000000 327.07331011 343.06703422 359.78500769 375.52262145 388.07167478 397.86306556 405.99155090 413.48398156 419.25099033 422.24924579 422.24924579 419.25099033 413.48398156 405.99155090 397.86306556 388.07167478 375.52262145 359.78500769 343.06703422 327.07331011 300.00000000 300.00000000 300.00000000 300.00000000 300.00000000 300.00000000 300.00000000 300.00000000 300.00000000 300.00000000 300.00000000 300.00000000 300.00000000 300.00000000 300.00000000 300.00000000 300.00000000 300.00000000 324.21090225 342.77645730 365.68189224 385.82130174 404.27470395 420.93027874 434.94798238 446.30332106 455.42177094 462.66661525 467.80926111 470.46309532 470.46309532 467.80926111 462.66661525 455.42177094 446.30332106 434.94798238 420.93027874 404.27470395 385.82130174 365.68189224 342.77645730 324.21090225 300.00000000 300.00000000 300.00000000 300.00000000 300.00000000 300.00000000 300.00000000 300.00000000 300.00000000 300.00000000 300.00000000 300.00000000 300.00000000 300.00000000 300.00000000 329.94268387 357.02447668 381.90704543 406.28952931 428.53105913 448.38649823 465.73900116 480.33903541 492.20475551 501.56490900 508.63266070 513.42476886 515.84990822 515.84990822 513.42476886 508.63266070 501.56490900 492.20475551 480.33903541 465.73900116 448.38649823 428.53105913 406.28952931 381.90704543 357.02447668 329.94268387 300.00000000 300.00000000 300.00000000 300.00000000 300.00000000 300.00000000 300.00000000 300.00000000 300.00000000 300.00000000 300.00000000 300.00000000 313.82378238 334.72877694 363.25582683 392.27697338 420.02518787 445.99848493 469.40680874 489.91202855 507.42669486 521.95615415 533.64182482 542.71794108 549.40448746 553.82803455 556.03374633 556.03374633 553.82803455 549.40448746 542.71794108 533.64182482 521.95615415 507.42669486 489.91202855 469.40680874 445.99848493 420.02518787 392.27697338 363.25582683 334.72877694 313.82378238 300.00000000 300.00000000 300.00000000 300.00000000 300.00000000 300.00000000 300.00000000 300.00000000 300.00000000 300.00000000 333.23760841 363.69888136 395.22426822 426.37069411 455.84090730 482.79157292 506.62461951 527.09101276 544.20843394 558.14915898 569.18243952 577.61367598 583.71680338 587.68970324 589.64964400 589.64964400 587.68970324 583.71680338 577.61367598 569.18243952 558.14915898 544.20843394 527.09101276 506.62461951 482.79157292 455.84090730 426.37069411 395.22426822 363.69888136 333.23760841 300.00000000 300.00000000 300.00000000 300.00000000 300.00000000 300.00000000 300.00000000 300.00000000 300.00000000 325.58409222 357.23781934 390.62770034 424.45793202 457.24727435 487.73855006 515.06564698 538.74616782 558.66125902 574.96579064 587.97659455 598.08197865 605.67011014 611.07499826 614.54637089 616.24380476 616.24380476 614.54637089 611.07499826 605.67011014 598.08197865 587.97659455 574.96579064 558.66125902 538.74616782 515.06564698 487.73855006 457.24727435 424.45793202 390.62770034 357.23781934 325.58409222 300.00000000 300.00000000 300.00000000 300.00000000 300.00000000 300.00000000 300.00000000 317.74400517 345.37659170 378.55656334 413.98796796 449.51130525 483.41711886 514.41418836 541.67792905 564.83923087 583.91757654 599.20770090 611.15500221 620.25072769 626.95627665 631.65612971 634.63628614 636.08153898 636.08153898 634.63628614 631.65612971 626.95627665 620.25072769 611.15500221 599.20770090 583.91757654 564.83923087 541.67792905 514.41418836 483.41711886 449.51130525 413.98796796 378.55656334 345.37659170 317.74400517 300.00000000 300.00000000 300.00000000 300.00000000 300.00000000 300.00000000 327.63751228 359.62884854 395.23779898 432.43920384 469.20485983 503.80843565 534.97285740 561.93904691 584.44652336 602.64073487 616.93863215 627.89087500 636.06943819 641.99149566 646.07769950 648.63709649 649.86856935 649.86856935 648.63709649 646.07769950 641.99149566 636.06943819 627.89087500 616.93863215 602.64073487 584.44652336 561.93904691 534.97285740 503.80843565 469.20485983 432.43920384 395.23779898 359.62884854 327.63751228 300.00000000 300.00000000 300.00000000 300.00000000 300.00000000 300.00000000 333.92603958 369.13173044 406.66497464 445.14969860 482.73115127 517.72383579 548.88597470 575.52086116 597.45476257 614.92879197 628.44962032 638.64216886 646.13325471 651.47648456 655.11473448 657.36985221 658.44765763 658.44765763 657.36985221 655.11473448 651.47648456 646.13325471 638.64216886 628.44962032 614.92879197 597.45476257 575.52086116 548.88597470 517.72383579 482.73115127 445.14969860 406.66497464 369.13173044 333.92603958 300.00000000 300.00000000 300.00000000 300.00000000 300.00000000 309.97906794 338.99536830 374.29292245 412.54346261 451.63579063 489.60839288 524.76832769 555.89193564 582.31837941 603.92186238 620.99501322 634.09181725 643.87545756 651.00029962 656.03769747 659.44084889 661.53709557 662.53493202 662.53493202 661.53709557 659.44084889 656.03769747 651.00029962 643.87545756 634.09181725 620.99501322 603.92186238 582.31837941 555.89193564 524.76832769 489.60839288 451.63579063 412.54346261 374.29292245 338.99536830 309.97906794 300.00000000 300.00000000 300.00000000 300.00000000 309.97906794 338.99536830 374.29292245 412.54346261 451.63579063 489.60839288 524.76832769 555.89193564 582.31837941 603.92186238 620.99501322 634.09181725 643.87545756 651.00029962 656.03769747 659.44084889 661.53709557 662.53493202 662.53493202 661.53709557 659.44084889 656.03769747 651.00029962 643.87545756 634.09181725 620.99501322 603.92186238 582.31837941 555.89193564 524.76832769 489.60839288 451.63579063 412.54346261 374.29292245 338.99536830 309.97906794 300.00000000 300.00000000 300.00000000 300.00000000 300.00000000 333.92603958 369.13173044 406.66497464 445.14969860 482.73115127 517.72383579 548.88597470 575.52086116 597.45476257 614.92879197 628.44962032 638.64216886 646.13325471 651.47648456 655.11473448 657.36985221 658.44765763 658.44765763 657.36985221 655.11473448 651.47648456 646.13325471 638.64216886 628.44962032 614.92879197 597.45476257 575.52086116 548.88597470 517.72383579 482.73115127 445.14969860 406.66497464 369.13173044 333.92603958 300.00000000 300.00000000 300.00000000 300.00000000 300.00000000 300.00000000 327.63751228 359.62884854 395.23779898 432.43920384 469.20485983 503.80843565 534.97285740 561.93904691 584.44652336 602.64073487 616.93863215 627.89087500 636.06943819 641.99149566 646.07769950 648.63709649 649.86856935 649.86856935 648.63709649 646.07769950 641.99149566 636.06943819 627.89087500 616.93863215 602.64073487 584.44652336 561.93904691 534.97285740 503.80843565 469.20485983 432.43920384 395.23779898 359.62884854 327.63751228 300.00000000 300.00000000 300.00000000 300.00000000 300.00000000 300.00000000 317.74400517 345.37659170 378.55656334 413.98796796 449.51130525 483.41711886 514.41418836 541.67792905 564.83923087 583.91757654 599.20770090 611.15500221 620.25072769 626.95627665 631.65612971 634.63628614 636.08153898 636.08153898 634.63628614 631.65612971 626.95627665 620.25072769 611.15500221 599.20770090 583.91757654 564.83923087 541.67792905 514.41418836 483.41711886 449.51130525 413.98796796 378.55656334 345.37659170 317.74400517 300.00000000 300.00000000 300.00000000 300.00000000 300.00000000 300.00000000 300.00000000 325.58409222 357.23781934 390.62770034 424.45793202 457.24727435 487.73855006 515.06564698 538.74616782 558.66125902 574.96579064 587.97659455 598.08197865 605.67011014 611.07499826 614.54637089 616.24380476 616.24380476 614.54637089 611.07499826 605.67011014 598.08197865 587.97659455 574.96579064 558.66125902 538.74616782 515.06564698 487.73855006 457.24727435 424.45793202 390.62770034 357.23781934 325.58409222 300.00000000 300.00000000 300.00000000 300.00000000 300.00000000 300.00000000 300.00000000 300.00000000 300.00000000 333.23760841 363.69888136 395.22426822 426.37069411 455.84090730 482.79157292 506.62461951 527.09101276 544.20843394 558.14915898 569.18243952 577.61367598 583.71680338 587.68970324 589.64964400 589.64964400 587.68970324 583.71680338 577.61367598 569.18243952 558.14915898 544.20843394 527.09101276 506.62461951 482.79157292 455.84090730 426.37069411 395.22426822 363.69888136 333.23760841 300.00000000 300.00000000 300.00000000 300.00000000 300.00000000 300.00000000 300.00000000 300.00000000 300.00000000 300.00000000 313.82378238 334.72877694 363.25582683 392.27697338 420.02518787 445.99848493 469.40680874 489.91202855 507.42669486 521.95615415 533.64182482 542.71794108 549.40448746 553.82803455 556.03374633 556.03374633 553.82803455 549.40448746 542.71794108 533.64182482 521.95615415 507.42669486 489.91202855 469.40680874 445.99848493 420.02518787 392.27697338 363.25582683 334.72877694 313.82378238 300.00000000 300.00000000 300.00000000 300.00000000 300.00000000 300.00000000 300.00000000 300.00000000 300.00000000 300.00000000 300.00000000 300.00000000 329.94268387 357.02447668 381.90704543 406.28952931 428.53105913 448.38649823 465.73900116 480.33903541 492.20475551 501.56490900 508.63266070 513.42476886 515.84990822 515.84990822 513.42476886 508.63266070 501.56490900 492.20475551 480.33903541 465.73900116 448.38649823 428.53105913 406.28952931 381.90704543 357.02447668 329.94268387 300.00000000 300.00000000 300.00000000 300.00000000 300.00000000 300.00000000 300.00000000 300.00000000 300.00000000 300.00000000 300.00000000 300.00000000 300.00000000 300.00000000 300.00000000 324.21090225 342.77645730 365.68189224 385.82130174 404.27470395 420.93027874 434.94798238 446.30332106 455.42177094 462.66661525 467.80926111 470.46309532 470.46309532 467.80926111 462.66661525 455.42177094 446.30332106 434.94798238 420.93027874 404.27470395 385.82130174 365.68189224 342.77645730 324.21090225 300.00000000 300.00000000 300.00000000 300.00000000 300.00000000 300.00000000 300.00000000 300.00000000 300.00000000 300.00000000 300.00000000 300.00000000 300.00000000 300.00000000 300.00000000 300.00000000 300.00000000 300.00000000 327.07331011 343.06703422 359.78500769 375.52262145 388.07167478 397.86306556 405.99155090 413.48398156 419.25099033 422.24924579 422.24924579 419.25099033 413.48398156 405.99155090 397.86306556 388.07167478 375.52262145 359.78500769 343.06703422 327.07331011 300.00000000 300.00000000 300.00000000 300.00000000 300.00000000 300.00000000 300.00000000 300.00000000 300.00000000 300.00000000 300.00000000 300.00000000 300.00000000 300.00000000 300.00000000 300.00000000 300.00000000 300.00000000 300.00000000 300.00000000 300.00000000 300.00000000 318.84608306 333.29006507 342.40365062 348.78179215 354.63447833 363.78988588 371.14408073 374.69275776 374.69275776 371.14408073 363.78988588 354.63447833 348.78179215 342.40365062 333.29006507 318.84608306 300.00000000 300.00000000 300.00000000 300.00000000 300.00000000 300.00000000 300.00000000 300.00000000 300.00000000 300.00000000 300.00000000 300.00000000 300.00000000 300.00000000 300.00000000 300.00000000 300.00000000 300.00000000 300.00000000 300.00000000 300.00000000 300.00000000 300.00000000 300.00000000 300.00000000 300.00000000 300.00000000 300.00000000 300.00000000 318.72613957 328.79443537 332.48056432 332.48056432 328.79443537 318.72613957 300.00000000 300.00000000 300.00000000 300.00000000 300.00000000 300.00000000 300.00000000 300.00000000 300.00000000 300.00000000 300.00000000 300.00000000 300.00000000 300.00000000 300.00000000 300.00000000 300.00000000 300.00000000 300.00000000 300.00000000 300.00000000 300.00000000 300.00000000 300.00000000 300.00000000 300.00000000 300.00000000 300.00000000 300.00000000 300.00000000 300.00000000 300.00000000 300.00000000 300.00000000 300.00000000 300.00000000 300.00000000 300.00000000 300.00000000 300.00000000 300.00000000 300.00000000 300.00000000 300.00000000 300.00000000 300.00000000 300.00000000 300.00000000 300.00000000 300.00000000 300.00000000 300.00000000 300.00000000 300.00000000 300.00000000 300.00000000 300.00000000 300.00000000 300.00000000 300.00000000 300.00000000 300.00000000 300.00000000 300.00000000 300.00000000 300.00000000 300.00000000 300.00000000 300.00000000 300.00000000 300.00000000 300.00000000 300.00000000 300.00000000 300.00000000 300.00000000 300.00000000 300.00000000 300.00000000 300.00000000 300.00000000 300.00000000 300.00000000 300.00000000 300.00000000 300.00000000 300.00000000 300.00000000 300.00000000 300.00000000 300.00000000 300.00000000 300.00000000 300.00000000 300.00000000 300.00000000 300.00000000 300.00000000 300.00000000 300.00000000 300.00000000 300.00000000 300.00000000 300.00000000 300.00000000 300.00000000 300.00000000 300.00000000 300.00000000 300.00000000 300.00000000 300.00000000 300.00000000 300.00000000 300.00000000 300.00000000 300.00000000 300.00000000 300.00000000 300.00000000 300.00000000 300.00000000 300.00000000 300.00000000 300.00000000 300.00000000 300.00000000 300.00000000 300.00000000 300.00000000 300.00000000 300.00000000 300.00000000 300.00000000 300.00000000 300.00000000 300.00000000 300.00000000 300.00000000 300.00000000 300.00000000 300.00000000 300.00000000 300.00000000 300.00000000 300.00000000 300.00000000 300.00000000 300.00000000 300.00000000 300.00000000 300.00000000 300.00000000 300.00000000 300.00000000 300.00000000 300.00000000 300.00000000 300.00000000 300.00000000 300.00000000 300.00000000 300.00000000 300.00000000 300.00000000 300.00000000 300.00000000 300.00000000 300.00000000 300.00000000 300.00000000 300.00000000 300.00000000 300.00000000 300.00000000 300.00000000 300.00000000 300.00000000 300.00000000 300.00000000 300.00000000 300.00000000 300.00000000 300.00000000 300.00000000 300.00000000 300.00000000 300.00000000 300.00000000 300.00000000 300.00000000 300.00000000 300.00000000 300.00000000 300.00000000 300.00000000 300.00000000 300.00000000 300.00000000 300.00000000 300.00000000 300.00000000 300.00000000 300.00000000 300.00000000 300.00000000 300.00000000 300.00000000 300.00000000 300.00000000 300.00000000 300.00000000 300.00000000 300.00000000 300.00000000 300.00000000 300.00000000 300.00000000 300.00000000 300.00000000 300.00000000 300.00000000 300.00000000 300.00000000 300.00000000 300.00000000 300.00000000 300.00000000 300.00000000 300.00000000 300.00000000 300.00000000 300.00000000 300.00000000 300.00000000 300.00000000 300.00000000 300.00000000 300.00000000 300.00000000 300.00000000 300.00000000 300.00000000 300.00000000 300.00000000 300.00000000 300.00000000 300.00000000 300.00000000 300.00000000 300.00000000 300.00000000 300.00000000 300.00000000 300.00000000 300.00000000 300.00000000 300.00000000 300.00000000 300.00000000 300.00000000 300.00000000 300.00000000 300.00000000 300.00000000 300.00000000 300.00000000 300.00000000 300.00000000 300.00000000 300.00000000 300.00000000 300.00000000 300.00000000 300.00000000 300.00000000 300.00000000 300.00000000 300.00000000 300.00000000 300.00000000 300.00000000 300.00000000 300.00000000 300.00000000 300.00000000 300.00000000 300.00000000 300.00000000 300.00000000 300.00000000 300.00000000 300.00000000 300.00000000 300.00000000 300.00000000 300.00000000 300.00000000 300.00000000 300.00000000 300.00000000 300.00000000 300.00000000 300.00000000 300.00000000 300.00000000 300.00000000 300.00000000 300.00000000 300.00000000 300.00000000 300.00000000 300.00000000 300.00000000 300.00000000 300.00000000 300.00000000 300.00000000 300.00000000 300.00000000 300.00000000 300.00000000 300.00000000 300.00000000 300.00000000 300.00000000 300.00000000 300.00000000 300.00000000 300.00000000 300.00000000 300.00000000 300.00000000 300.00000000 300.00000000 300.00000000 300.00000000 