# vtk DataFile Version 3.0
VTK - Matlab export
ASCII
DATASET STRUCTURED_POINTS
DIMENSIONS 40 40 1
SPACING 1 1 1
ORIGIN 0 0 0
POINT_DATA 1600
SCALARS Proofstrength float 1
LOOKUP_TABLE default
142.25514280 142.25514280 142.25514280 142.25514280 142.25514280 142.25514280 142.25514280 142.25514280 142.25514280 142.25514280 142.25514280 142.25514280 142.25514280 142.25514280 142.25514280 142.25514280 142.25514280 142.25514280 142.25514280 142.25514280 142.25514280 142.25514280 142.25514280 142.25514280 142.25514280 142.25514280 142.25514280 142.25514280 142.25514280 142.25514280 142.25514280 142.25514280 142.25514280 142.25514280 142.25514280 142.25514280 142.25514280 142.25514280 142.25514280 142.25514280 142.25514280 142.25514280 142.25514280 142.25514280 142.25514280 142.25514280 142.25514280 142.25514280 142.25514280 142.25514280 142.25514280 142.25514280 142.25514280 142.25514280 142.25514280 142.25514280 142.25514280 142.25514280 142.25514280 142.25514280 142.25514280 142.25514280 142.25514280 142.25514280 142.25514280 142.25514280 142.25514280 142.25514280 142.25514280 142.25514280 142.25514280 142.25514280 142.25514280 142.25514280 142.25514280 142.25514280 142.25514280 142.25514280 142.25514280 142.25514280 142.25514280 142.25514280 142.25514280 142.25514280 142.25514280 142.25514280 142.25514280 142.25514280 142.25514280 142.25514280 142.25514280 142.25514280 142.25514280 142.25514280 142.25514280 142.25514280 142.25514280 142.25514280 142.25514280 142.25514280 142.25514280 142.25514280 142.25514280 142.25514280 142.25514280 142.25514280 142.25514280 142.25514280 142.25514280 142.25514280 142.25514280 142.25514280 142.25514280 142.25514280 142.25514280 142.25514280 142.25514280 142.25514280 142.25514280 142.25514280 142.25514280 142.25514280 142.25514280 142.25514280 142.25514280 142.25514280 142.25514280 142.25514280 142.25514280 142.25514280 142.25514280 142.25514280 142.25514280 142.25514280 142.25514280 142.25514280 142.25514280 142.25514280 142.25514280 142.25514280 142.25514280 142.25514280 142.25514280 142.25514280 142.25514280 142.25514280 142.25514280 142.25514280 142.25514280 142.25514280 142.25514280 142.25514280 142.25514280 142.25514280 142.25514280 142.25514280 142.25514280 142.25514280 142.25514280 142.25514280 142.25514280 142.25514280 142.25514280 142.25514280 142.25514280 142.25514280 142.25514280 142.25514280 142.25514280 142.25514280 142.25514280 142.25514280 142.25514280 142.25514280 142.25514280 142.25514280 142.25514280 142.25514280 142.25514280 142.25514280 142.25514280 142.25514280 142.25514280 142.25514280 142.25514280 142.25514280 142.25514280 142.25514280 142.25514280 142.25514280 142.25514280 142.25514280 142.25514280 142.25514280 142.25514280 142.25514280 142.25514280 142.25514280 142.25514280 142.25514280 142.25514280 142.25514280 142.25514280 142.25514280 142.25514280 142.25514280 142.25514280 142.25514280 142.25514280 142.25514280 142.25514280 142.25514280 142.25514280 142.25514280 142.25514280 142.25514280 142.25514280 142.25514280 142.25514280 142.25514280 142.25514280 142.25514280 142.25514280 142.25514280 142.25514280 142.25514280 142.25514280 142.25514280 142.25514280 142.25514280 142.25514280 142.25514280 142.25514280 142.25514280 142.25514280 142.25514280 142.25514280 142.25514280 142.25514280 142.25514280 142.25514280 142.25514280 142.25514280 142.25514280 142.25514280 142.25514280 142.25514280 142.25514280 142.25514280 142.25514280 142.25514280 142.25514280 142.25514280 142.25514280 142.25514280 142.25514280 142.25514280 142.25514280 142.25514280 142.25514280 142.25514280 142.25514280 142.25514280 142.25514280 142.25514280 142.25514280 142.25514280 142.25514280 142.25514280 142.25514280 142.25514280 142.25514280 142.25514280 142.25514280 142.25514280 142.25514280 142.25514280 142.25514280 142.25514280 142.25514280 142.25514280 142.25514280 142.25514280 142.25514280 142.25514280 142.25514280 142.25514280 142.25514280 142.25514280 142.25514280 142.25514280 142.25514280 142.25514280 142.25514280 142.25514280 142.25514280 142.25514280 142.25514280 142.25514280 142.25514280 142.25514280 142.25514280 142.25514280 142.25514280 142.25514280 142.25514280 142.25514280 142.25514280 142.25514280 142.25514280 142.25514280 142.25514280 142.25514280 142.25514280 142.25514280 142.25514280 142.25514280 142.25514280 142.25514280 142.25514280 142.25514280 142.25514280 142.25514280 142.25514280 142.25514280 142.25514280 142.25514280 142.25514280 142.25514280 142.25514280 142.25514280 142.25514280 142.25514280 142.25514280 142.25514280 142.25514280 142.25514280 142.25669978 142.25754173 142.25785047 142.25785047 142.25754173 142.25669978 142.25514280 142.25514280 142.25514280 142.25514280 142.25514280 142.25514280 142.25514280 142.25514280 142.25514280 142.25514280 142.25514280 142.25514280 142.25514280 142.25514280 142.25514280 142.25514280 142.25514280 142.25514280 142.25514280 142.25514280 142.25514280 142.25514280 142.25514280 142.25514280 142.25514280 142.25514280 142.25514280 142.25514280 142.25514280 142.25678776 142.25801437 142.25874962 142.25923226 142.25966767 142.26039290 142.26098318 142.26126769 142.26126769 142.26098318 142.26039290 142.25966767 142.25923226 142.25874962 142.25801437 142.25678776 142.25514280 142.25514280 142.25514280 142.25514280 142.25514280 142.25514280 142.25514280 142.25514280 142.25514280 142.25514280 142.25514280 142.25514280 142.25514280 142.25514280 142.25514280 142.25514280 142.25514280 142.25514280 142.25514280 142.25514280 142.25514280 142.25514280 142.25759147 142.25896817 142.26034758 142.26159219 142.26252263 142.26319769 142.26373651 142.26424806 142.26465143 142.26486204 142.26486204 142.26465143 142.26424806 142.26373651 142.26319769 142.26252263 142.26159219 142.26034758 142.25896817 142.25759147 142.25514280 142.25514280 142.25514280 142.25514280 142.25514280 142.25514280 142.25514280 142.25514280 142.25514280 142.25514280 142.25514280 142.25514280 142.25514280 142.25514280 142.25514280 142.25514280 142.25514280 142.25514280 142.25743249 142.25910227 142.26107797 142.26269975 142.26408052 142.26523782 142.26612792 142.26678204 142.26727036 142.26765188 142.26792522 142.26806689 142.26806689 142.26792522 142.26765188 142.26727036 142.26678204 142.26612792 142.26523782 142.26408052 142.26269975 142.26107797 142.25910227 142.25743249 142.25514280 142.25514280 142.25514280 142.25514280 142.25514280 142.25514280 142.25514280 142.25514280 142.25514280 142.25514280 142.25514280 142.25514280 142.25514280 142.25514280 142.25514280 142.25805010 142.26055592 142.26270106 142.26464404 142.26624671 142.26751907 142.26849589 142.26920390 142.26969252 142.27002441 142.27025194 142.27039966 142.27047305 142.27047305 142.27039966 142.27025194 142.27002441 142.26969252 142.26920390 142.26849589 142.26751907 142.26624671 142.26464404 142.26270106 142.26055592 142.25805010 142.25514280 142.25514280 142.25514280 142.25514280 142.25514280 142.25514280 142.25514280 142.25514280 142.25514280 142.25514280 142.25514280 142.25514280 142.25655965 142.25862954 142.26132742 142.26388711 142.26610838 142.26794920 142.26936933 142.27039280 142.27107880 142.27149622 142.27171978 142.27182152 142.27185910 142.27186916 142.27187037 142.27187037 142.27186916 142.27185910 142.27182152 142.27171978 142.27149622 142.27107880 142.27039280 142.26936933 142.26794920 142.26610838 142.26388711 142.26132742 142.25862954 142.25655965 142.25514280 142.25514280 142.25514280 142.25514280 142.25514280 142.25514280 142.25514280 142.25514280 142.25514280 142.25514280 142.25857865 142.26157653 142.26445951 142.26703481 142.26915919 142.27077514 142.27188445 142.27254571 142.27285176 142.27290566 142.27280617 142.27263797 142.27246539 142.27233089 142.27225842 142.27225842 142.27233089 142.27246539 142.27263797 142.27280617 142.27290566 142.27285176 142.27254571 142.27188445 142.27077514 142.26915919 142.26703481 142.26445951 142.26157653 142.25857865 142.25514280 142.25514280 142.25514280 142.25514280 142.25514280 142.25514280 142.25514280 142.25514280 142.25514280 142.25786995 142.26111591 142.26432694 142.26728309 142.26978441 142.27170299 142.27300051 142.27371707 142.27395154 142.27383343 142.27349613 142.27305866 142.27261601 142.27223639 142.27196349 142.27182174 142.27182174 142.27196349 142.27223639 142.27261601 142.27305866 142.27349613 142.27383343 142.27395154 142.27371707 142.27300051 142.27170299 142.26978441 142.26728309 142.26432694 142.26111591 142.25786995 142.25514280 142.25514280 142.25514280 142.25514280 142.25514280 142.25514280 142.25514280 142.25708326 142.26002473 142.26338643 142.26670153 142.26965070 142.27201183 142.27366721 142.27460571 142.27490617 142.27470766 142.27417441 142.27346553 142.27271531 142.27202491 142.27146278 142.27107035 142.27086959 142.27086959 142.27107035 142.27146278 142.27202491 142.27271531 142.27346553 142.27417441 142.27470766 142.27490617 142.27460571 142.27366721 142.27201183 142.26965070 142.26670153 142.26338643 142.26002473 142.25708326 142.25514280 142.25514280 142.25514280 142.25514280 142.25514280 142.25514280 142.25818137 142.26159078 142.26516382 142.26855833 142.27146501 142.27366479 142.27505581 142.27565535 142.27557788 142.27499773 142.27410817 142.27308805 142.27208177 142.27119290 142.27048751 142.27000285 142.26975707 142.26975707 142.27000285 142.27048751 142.27119290 142.27208177 142.27308805 142.27410817 142.27499773 142.27557788 142.27565535 142.27505581 142.27366479 142.27146501 142.26855833 142.26516382 142.26159078 142.25818137 142.25514280 142.25514280 142.25514280 142.25514280 142.25514280 142.25514280 142.25888567 142.26263910 142.26637825 142.26982331 142.27268165 142.27474354 142.27592275 142.27625997 142.27589714 142.27503473 142.27388666 142.27264488 142.27145957 142.27043437 142.26963221 142.26908612 142.26881063 142.26881063 142.26908612 142.26963221 142.27043437 142.27145957 142.27264488 142.27388666 142.27503473 142.27589714 142.27625997 142.27592275 142.27474354 142.27268165 142.26982331 142.26637825 142.26263910 142.25888567 142.25514280 142.25514280 142.25514280 142.25514280 142.25514280 142.25625635 142.25945701 142.26321076 142.26700198 142.27046367 142.27328980 142.27527259 142.27633441 142.27652894 142.27601305 142.27500111 142.27371771 142.27236127 142.27108444 142.26999039 142.26913990 142.26856343 142.26827335 142.26827335 142.26856343 142.26913990 142.26999039 142.27108444 142.27236127 142.27371771 142.27500111 142.27601305 142.27652894 142.27633441 142.27527259 142.27328980 142.27046367 142.26700198 142.26321076 142.25945701 142.25625635 142.25514280 142.25514280 142.25514280 142.25514280 142.25625635 142.25945701 142.26321076 142.26700198 142.27046367 142.27328980 142.27527259 142.27633441 142.27652894 142.27601305 142.27500111 142.27371771 142.27236127 142.27108444 142.26999039 142.26913990 142.26856343 142.26827335 142.26827335 142.26856343 142.26913990 142.26999039 142.27108444 142.27236127 142.27371771 142.27500111 142.27601305 142.27652894 142.27633441 142.27527259 142.27328980 142.27046367 142.26700198 142.26321076 142.25945701 142.25625635 142.25514280 142.25514280 142.25514280 142.25514280 142.25514280 142.25888567 142.26263910 142.26637825 142.26982331 142.27268165 142.27474354 142.27592275 142.27625997 142.27589714 142.27503473 142.27388666 142.27264488 142.27145957 142.27043437 142.26963221 142.26908612 142.26881063 142.26881063 142.26908612 142.26963221 142.27043437 142.27145957 142.27264488 142.27388666 142.27503473 142.27589714 142.27625997 142.27592275 142.27474354 142.27268165 142.26982331 142.26637825 142.26263910 142.25888567 142.25514280 142.25514280 142.25514280 142.25514280 142.25514280 142.25514280 142.25818137 142.26159078 142.26516382 142.26855833 142.27146501 142.27366479 142.27505581 142.27565535 142.27557788 142.27499773 142.27410817 142.27308805 142.27208177 142.27119290 142.27048751 142.27000285 142.26975707 142.26975707 142.27000285 142.27048751 142.27119290 142.27208177 142.27308805 142.27410817 142.27499773 142.27557788 142.27565535 142.27505581 142.27366479 142.27146501 142.26855833 142.26516382 142.26159078 142.25818137 142.25514280 142.25514280 142.25514280 142.25514280 142.25514280 142.25514280 142.25708326 142.26002473 142.26338643 142.26670153 142.26965070 142.27201183 142.27366721 142.27460571 142.27490617 142.27470766 142.27417441 142.27346553 142.27271531 142.27202491 142.27146278 142.27107035 142.27086959 142.27086959 142.27107035 142.27146278 142.27202491 142.27271531 142.27346553 142.27417441 142.27470766 142.27490617 142.27460571 142.27366721 142.27201183 142.26965070 142.26670153 142.26338643 142.26002473 142.25708326 142.25514280 142.25514280 142.25514280 142.25514280 142.25514280 142.25514280 142.25514280 142.25786995 142.26111591 142.26432694 142.26728309 142.26978441 142.27170299 142.27300051 142.27371707 142.27395154 142.27383343 142.27349613 142.27305866 142.27261601 142.27223639 142.27196349 142.27182174 142.27182174 142.27196349 142.27223639 142.27261601 142.27305866 142.27349613 142.27383343 142.27395154 142.27371707 142.27300051 142.27170299 142.26978441 142.26728309 142.26432694 142.26111591 142.25786995 142.25514280 142.25514280 142.25514280 142.25514280 142.25514280 142.25514280 142.25514280 142.25514280 142.25514280 142.25857865 142.26157653 142.26445951 142.26703481 142.26915919 142.27077514 142.27188445 142.27254571 142.27285176 142.27290566 142.27280617 142.27263797 142.27246539 142.27233089 142.27225842 142.27225842 142.27233089 142.27246539 142.27263797 142.27280617 142.27290566 142.27285176 142.27254571 142.27188445 142.27077514 142.26915919 142.26703481 142.26445951 142.26157653 142.25857865 142.25514280 142.25514280 142.25514280 142.25514280 142.25514280 142.25514280 142.25514280 142.25514280 142.25514280 142.25514280 142.25655965 142.25862954 142.26132742 142.26388711 142.26610838 142.26794920 142.26936933 142.27039280 142.27107880 142.27149622 142.27171978 142.27182152 142.27185910 142.27186916 142.27187037 142.27187037 142.27186916 142.27185910 142.27182152 142.27171978 142.27149622 142.27107880 142.27039280 142.26936933 142.26794920 142.26610838 142.26388711 142.26132742 142.25862954 142.25655965 142.25514280 142.25514280 142.25514280 142.25514280 142.25514280 142.25514280 142.25514280 142.25514280 142.25514280 142.25514280 142.25514280 142.25514280 142.25805010 142.26055592 142.26270106 142.26464404 142.26624671 142.26751907 142.26849589 142.26920390 142.26969252 142.27002441 142.27025194 142.27039966 142.27047305 142.27047305 142.27039966 142.27025194 142.27002441 142.26969252 142.26920390 142.26849589 142.26751907 142.26624671 142.26464404 142.26270106 142.26055592 142.25805010 142.25514280 142.25514280 142.25514280 142.25514280 142.25514280 142.25514280 142.25514280 142.25514280 142.25514280 142.25514280 142.25514280 142.25514280 142.25514280 142.25514280 142.25514280 142.25743249 142.25910227 142.26107797 142.26269975 142.26408052 142.26523782 142.26612792 142.26678204 142.26727036 142.26765188 142.26792522 142.26806689 142.26806689 142.26792522 142.26765188 142.26727036 142.26678204 142.26612792 142.26523782 142.26408052 142.26269975 142.26107797 142.25910227 142.25743249 142.25514280 142.25514280 142.25514280 142.25514280 142.25514280 142.25514280 142.25514280 142.25514280 142.25514280 142.25514280 142.25514280 142.25514280 142.25514280 142.25514280 142.25514280 142.25514280 142.25514280 142.25514280 142.25759147 142.25896817 142.26034758 142.26159219 142.26252263 142.26319769 142.26373651 142.26424806 142.26465143 142.26486204 142.26486204 142.26465143 142.26424806 142.26373651 142.26319769 142.26252263 142.26159219 142.26034758 142.25896817 142.25759147 142.25514280 142.25514280 142.25514280 142.25514280 142.25514280 142.25514280 142.25514280 142.25514280 142.25514280 142.25514280 142.25514280 142.25514280 142.25514280 142.25514280 142.25514280 142.25514280 142.25514280 142.25514280 142.25514280 142.25514280 142.25514280 142.25514280 142.25678776 142.25801437 142.25874962 142.25923226 142.25966767 142.26039290 142.26098318 142.26126769 142.26126769 142.26098318 142.26039290 142.25966767 142.25923226 142.25874962 142.25801437 142.25678776 142.25514280 142.25514280 142.25514280 142.25514280 142.25514280 142.25514280 142.25514280 142.25514280 142.25514280 142.25514280 142.25514280 142.25514280 142.25514280 142.25514280 142.25514280 142.25514280 142.25514280 142.25514280 142.25514280 142.25514280 142.25514280 142.25514280 142.25514280 142.25514280 142.25514280 142.25514280 142.25514280 142.25514280 142.25514280 142.25669978 142.25754173 142.25785047 142.25785047 142.25754173 142.25669978 142.25514280 142.25514280 142.25514280 142.25514280 142.25514280 142.25514280 142.25514280 142.25514280 142.25514280 142.25514280 142.25514280 142.25514280 142.25514280 142.25514280 142.25514280 142.25514280 142.25514280 142.25514280 142.25514280 142.25514280 142.25514280 142.25514280 142.25514280 142.25514280 142.25514280 142.25514280 142.25514280 142.25514280 142.25514280 142.25514280 142.25514280 142.25514280 142.25514280 142.25514280 142.25514280 142.25514280 142.25514280 142.25514280 142.25514280 142.25514280 142.25514280 142.25514280 142.25514280 142.25514280 142.25514280 142.25514280 142.25514280 142.25514280 142.25514280 142.25514280 142.25514280 142.25514280 142.25514280 142.25514280 142.25514280 142.25514280 142.25514280 142.25514280 142.25514280 142.25514280 142.25514280 142.25514280 142.25514280 142.25514280 142.25514280 142.25514280 142.25514280 142.25514280 142.25514280 142.25514280 142.25514280 142.25514280 142.25514280 142.25514280 142.25514280 142.25514280 142.25514280 142.25514280 142.25514280 142.25514280 142.25514280 142.25514280 142.25514280 142.25514280 142.25514280 142.25514280 142.25514280 142.25514280 142.25514280 142.25514280 142.25514280 142.25514280 142.25514280 142.25514280 142.25514280 142.25514280 142.25514280 142.25514280 142.25514280 142.25514280 142.25514280 142.25514280 142.25514280 142.25514280 142.25514280 142.25514280 142.25514280 142.25514280 142.25514280 142.25514280 142.25514280 142.25514280 142.25514280 142.25514280 142.25514280 142.25514280 142.25514280 142.25514280 142.25514280 142.25514280 142.25514280 142.25514280 142.25514280 142.25514280 142.25514280 142.25514280 142.25514280 142.25514280 142.25514280 142.25514280 142.25514280 142.25514280 142.25514280 142.25514280 142.25514280 142.25514280 142.25514280 142.25514280 142.25514280 142.25514280 142.25514280 142.25514280 142.25514280 142.25514280 142.25514280 142.25514280 142.25514280 142.25514280 142.25514280 142.25514280 142.25514280 142.25514280 142.25514280 142.25514280 142.25514280 142.25514280 142.25514280 142.25514280 142.25514280 142.25514280 142.25514280 142.25514280 142.25514280 142.25514280 142.25514280 142.25514280 142.25514280 142.25514280 142.25514280 142.25514280 142.25514280 142.25514280 142.25514280 142.25514280 142.25514280 142.25514280 142.25514280 142.25514280 142.25514280 142.25514280 142.25514280 142.25514280 142.25514280 142.25514280 142.25514280 142.25514280 142.25514280 142.25514280 142.25514280 142.25514280 142.25514280 142.25514280 142.25514280 142.25514280 142.25514280 142.25514280 142.25514280 142.25514280 142.25514280 142.25514280 142.25514280 142.25514280 142.25514280 142.25514280 142.25514280 142.25514280 142.25514280 142.25514280 142.25514280 142.25514280 142.25514280 142.25514280 142.25514280 142.25514280 142.25514280 142.25514280 142.25514280 142.25514280 142.25514280 142.25514280 142.25514280 142.25514280 142.25514280 142.25514280 142.25514280 142.25514280 142.25514280 142.25514280 142.25514280 142.25514280 142.25514280 142.25514280 142.25514280 142.25514280 142.25514280 142.25514280 142.25514280 142.25514280 142.25514280 142.25514280 142.25514280 142.25514280 142.25514280 142.25514280 142.25514280 142.25514280 142.25514280 142.25514280 142.25514280 142.25514280 142.25514280 142.25514280 142.25514280 142.25514280 142.25514280 142.25514280 142.25514280 142.25514280 142.25514280 142.25514280 142.25514280 142.25514280 142.25514280 142.25514280 142.25514280 142.25514280 142.25514280 142.25514280 142.25514280 142.25514280 142.25514280 142.25514280 142.25514280 142.25514280 142.25514280 142.25514280 142.25514280 142.25514280 142.25514280 142.25514280 142.25514280 142.25514280 142.25514280 142.25514280 142.25514280 142.25514280 142.25514280 142.25514280 142.25514280 142.25514280 142.25514280 142.25514280 142.25514280 142.25514280 142.25514280 142.25514280 142.25514280 142.25514280 142.25514280 142.25514280 142.25514280 142.25514280 142.25514280 142.25514280 142.25514280 142.25514280 142.25514280 142.25514280 142.25514280 142.25514280 142.25514280 142.25514280 142.25514280 142.25514280 142.25514280 142.25514280 142.25514280 142.25514280 142.25514280 142.25514280 142.25514280 142.25514280 142.25514280 142.25514280 142.25514280 142.25514280 142.25514280 142.25514280 142.25514280 142.25514280 142.25514280 142.25514280 142.25514280 142.25514280 142.25514280 142.25514280 142.25514280 