# vtk DataFile Version 3.0
VTK - Matlab export
ASCII
DATASET STRUCTURED_POINTS
DIMENSIONS 40 40 1
SPACING 1 1 1
ORIGIN 0 0 0
POINT_DATA 1600
SCALARS Temperature float 1
LOOKUP_TABLE default
300.00000000 300.00000000 300.00000000 300.00000000 300.00000000 300.00000000 300.00000000 300.00000000 300.00000000 300.00000000 300.00000000 300.00000000 300.00000000 300.00000000 300.00000000 300.00000000 300.00000000 300.00000000 300.00000000 300.00000000 300.00000000 300.00000000 300.00000000 300.00000000 300.00000000 300.00000000 300.00000000 300.00000000 300.00000000 300.00000000 300.00000000 300.00000000 300.00000000 300.00000000 300.00000000 300.00000000 300.00000000 300.00000000 300.00000000 300.00000000 300.00000000 300.00000000 300.00000000 300.00000000 300.00000000 300.00000000 300.00000000 300.00000000 300.00000000 300.00000000 300.00000000 300.00000000 300.00000000 300.00000000 300.00000000 300.00000000 300.00000000 300.00000000 300.00000000 300.00000000 300.00000000 300.00000000 300.00000000 300.00000000 300.00000000 300.00000000 300.00000000 300.00000000 300.00000000 300.00000000 300.00000000 300.00000000 300.00000000 300.00000000 300.00000000 300.00000000 300.00000000 300.00000000 300.00000000 300.00000000 300.00000000 300.00000000 300.00000000 300.00000000 300.00000000 300.00000000 300.00000000 300.00000000 300.00000000 300.00000000 300.00000000 300.00000000 300.00000000 300.00000000 300.00000000 300.00000000 300.00000000 300.00000000 300.00000000 300.00000000 300.00000000 300.00000000 300.00000000 300.00000000 300.00000000 300.00000000 300.00000000 300.00000000 300.00000000 300.00000000 300.00000000 300.00000000 300.00000000 300.00000000 300.00000000 300.00000000 300.00000000 300.00000000 300.00000000 300.00000000 300.00000000 300.00000000 300.00000000 300.00000000 300.00000000 300.00000000 300.00000000 300.00000000 300.00000000 300.00000000 300.00000000 300.00000000 300.00000000 300.00000000 300.00000000 300.00000000 300.00000000 300.00000000 300.00000000 300.00000000 300.00000000 300.00000000 300.00000000 300.00000000 300.00000000 300.00000000 300.00000000 300.00000000 300.00000000 300.00000000 300.00000000 300.00000000 300.00000000 300.00000000 300.00000000 300.00000000 300.00000000 300.00000000 300.00000000 300.00000000 300.00000000 300.00000000 300.00000000 300.00000000 300.00000000 300.00000000 300.00000000 300.00000000 300.00000000 300.00000000 300.00000000 300.00000000 300.00000000 300.00000000 300.00000000 300.00000000 300.00000000 300.00000000 300.00000000 300.00000000 300.00000000 300.00000000 300.00000000 300.00000000 300.00000000 300.00000000 300.00000000 300.00000000 300.00000000 300.00000000 300.00000000 300.00000000 300.00000000 300.00000000 300.00000000 300.00000000 300.00000000 300.00000000 300.00000000 300.00000000 300.00000000 300.00000000 300.00000000 300.00000000 300.00000000 300.00000000 300.00000000 300.00000000 300.00000000 300.00000000 300.00000000 300.00000000 300.00000000 300.00000000 300.00000000 300.00000000 300.00000000 300.00000000 300.00000000 300.00000000 300.00000000 300.00000000 300.00000000 300.00000000 300.00000000 300.00000000 300.00000000 300.00000000 300.00000000 300.00000000 300.00000000 300.00000000 300.00000000 300.00000000 300.00000000 300.00000000 300.00000000 300.00000000 300.00000000 300.00000000 300.00000000 300.00000000 300.00000000 300.00000000 300.00000000 300.00000000 300.00000000 300.00000000 300.00000000 300.00000000 300.00000000 300.00000000 300.00000000 300.00000000 300.00000000 300.00000000 300.00000000 300.00000000 300.00000000 300.00000000 300.00000000 300.00000000 300.00000000 300.00000000 300.00000000 300.00000000 300.00000000 300.00000000 300.00000000 300.00000000 300.00000000 300.00000000 300.00000000 300.00000000 300.00000000 300.00000000 300.00000000 300.00000000 300.00000000 300.00000000 300.00000000 300.00000000 300.00000000 300.00000000 300.00000000 300.00000000 300.00000000 300.00000000 300.00000000 300.00000000 300.00000000 300.00000000 300.00000000 300.00000000 300.00000000 300.00000000 300.00000000 300.00000000 300.00000000 300.00000000 300.00000000 300.00000000 300.00000000 300.00000000 300.00000000 300.00000000 300.00000000 300.00000000 300.00000000 300.00000000 300.00000000 300.00000000 300.00000000 300.00000000 300.00000000 300.00000000 300.00000000 300.00000000 300.00000000 300.00000000 300.00000000 300.00000000 300.00000000 300.00000000 300.00000000 300.00000000 300.00000000 300.00000000 300.00000000 300.00000000 300.00000000 300.00000000 300.00000000 300.00000000 300.00000000 300.00000000 300.00000000 364.54535967 403.04362882 418.27982092 418.27982092 403.04362882 364.54535967 300.00000000 300.00000000 300.00000000 300.00000000 300.00000000 300.00000000 300.00000000 300.00000000 300.00000000 300.00000000 300.00000000 300.00000000 300.00000000 300.00000000 300.00000000 300.00000000 300.00000000 300.00000000 300.00000000 300.00000000 300.00000000 300.00000000 300.00000000 300.00000000 300.00000000 300.00000000 300.00000000 300.00000000 300.00000000 366.58664654 416.37060732 443.28478183 457.77479306 471.13144407 500.07394602 526.28068611 539.50476600 539.50476600 526.28068611 500.07394602 471.13144407 457.77479306 443.28478183 416.37060732 366.58664654 300.00000000 300.00000000 300.00000000 300.00000000 300.00000000 300.00000000 300.00000000 300.00000000 300.00000000 300.00000000 300.00000000 300.00000000 300.00000000 300.00000000 300.00000000 300.00000000 300.00000000 300.00000000 300.00000000 300.00000000 300.00000000 300.00000000 396.92145993 447.95384897 496.58223604 538.03458813 564.14733227 578.79784482 589.87901146 604.00274559 617.27225906 624.54126819 624.54126819 617.27225906 604.00274559 589.87901146 578.79784482 564.14733227 538.03458813 496.58223604 447.95384897 396.92145993 300.00000000 300.00000000 300.00000000 300.00000000 300.00000000 300.00000000 300.00000000 300.00000000 300.00000000 300.00000000 300.00000000 300.00000000 300.00000000 300.00000000 300.00000000 300.00000000 300.00000000 300.00000000 389.21454524 449.31679604 516.86807259 563.85115026 597.84505945 622.83282580 638.26926658 646.66952310 652.26759113 658.01585713 663.23562404 666.14912125 666.14912125 663.23562404 658.01585713 652.26759113 646.66952310 638.26926658 622.83282580 597.84505945 563.85115026 516.86807259 449.31679604 389.21454524 300.00000000 300.00000000 300.00000000 300.00000000 300.00000000 300.00000000 300.00000000 300.00000000 300.00000000 300.00000000 300.00000000 300.00000000 300.00000000 300.00000000 300.00000000 409.37004870 496.60351103 558.84549306 605.58335928 635.33938274 653.51759456 664.89642252 671.38478404 674.69319890 676.68472338 678.50940881 680.10961340 680.99902964 680.99902964 680.10961340 678.50940881 676.68472338 674.69319890 671.38478404 664.89642252 653.51759456 635.33938274 605.58335928 558.84549306 496.60351103 409.37004870 300.00000000 300.00000000 300.00000000 300.00000000 300.00000000 300.00000000 300.00000000 300.00000000 300.00000000 300.00000000 300.00000000 300.00000000 356.03916469 430.77604671 517.82592425 585.06127288 628.53139280 654.76768536 669.04998675 676.46170709 680.42988315 682.47251708 683.43123015 683.95772403 684.40905289 684.79533287 685.00706631 685.00706631 684.79533287 684.40905289 683.95772403 683.43123015 682.47251708 680.42988315 676.46170709 669.04998675 654.76768536 628.53139280 585.06127288 517.82592425 430.77604671 356.03916469 300.00000000 300.00000000 300.00000000 300.00000000 300.00000000 300.00000000 300.00000000 300.00000000 300.00000000 300.00000000 430.54157486 526.24374357 596.34780947 640.33699730 664.21128487 676.02170821 681.40254829 683.75594207 684.83132978 685.32518139 685.53600919 685.64208602 685.72987774 685.80400947 685.84382172 685.84382172 685.80400947 685.72987774 685.64208602 685.53600919 685.32518139 684.83132978 683.75594207 681.40254829 676.02170821 664.21128487 640.33699730 596.34780947 526.24374357 430.54157486 300.00000000 300.00000000 300.00000000 300.00000000 300.00000000 300.00000000 300.00000000 300.00000000 300.00000000 407.68579232 516.57909618 595.84306245 643.66109641 668.11420365 678.98101637 683.35080359 684.98431102 685.57634336 685.80486238 685.89756825 685.93320117 685.94966529 685.96320314 685.97458711 685.98053271 685.98053271 685.97458711 685.96320314 685.94966529 685.93320117 685.89756825 685.80486238 685.57634336 684.98431102 683.35080359 678.98101637 668.11420365 643.66109641 595.84306245 516.57909618 407.68579232 300.00000000 300.00000000 300.00000000 300.00000000 300.00000000 300.00000000 300.00000000 382.47498025 489.82405886 581.25703590 638.87270449 667.72651699 679.73098769 684.02871659 685.40584394 685.81618636 685.93589527 685.97413774 685.98769310 685.99233606 685.99431067 685.99597580 685.99737915 685.99808417 685.99808417 685.99737915 685.99597580 685.99431067 685.99233606 685.98769310 685.97413774 685.93589527 685.81618636 685.40584394 684.02871659 679.73098769 667.72651699 638.87270449 581.25703590 489.82405886 382.47498025 300.00000000 300.00000000 300.00000000 300.00000000 300.00000000 300.00000000 426.81458615 541.26789611 620.02989774 661.23840200 678.19026837 683.87688318 685.48455364 685.88204529 685.97212765 685.99219110 685.99728169 685.99883156 685.99929869 685.99948191 685.99964621 685.99978522 685.99985127 685.99985127 685.99978522 685.99964621 685.99948191 685.99929869 685.99883156 685.99728169 685.99219110 685.97212765 685.88204529 685.48455364 683.87688318 678.19026837 661.23840200 620.02989774 541.26789611 426.81458615 300.00000000 300.00000000 300.00000000 300.00000000 300.00000000 300.00000000 452.43310866 569.75210498 639.70606500 671.19260089 682.14222862 685.16732603 685.84734772 685.97504760 685.99593720 685.99917337 685.99976182 685.99990859 685.99994664 685.99996027 685.99997381 685.99998533 685.99999040 685.99999040 685.99998533 685.99997381 685.99996027 685.99994664 685.99990859 685.99976182 685.99917337 685.99593720 685.97504760 685.84734772 685.16732603 682.14222862 671.19260089 639.70606500 569.75210498 452.43310866 300.00000000 300.00000000 300.00000000 300.00000000 300.00000000 347.84066095 474.51985657 584.33619119 648.06410752 674.88166446 683.40916875 685.51544594 685.92653786 685.99077205 685.99896446 685.99986452 685.99997118 685.99999033 685.99999427 685.99999560 685.99999728 685.99999869 685.99999924 685.99999924 685.99999869 685.99999728 685.99999560 685.99999427 685.99999033 685.99997118 685.99986452 685.99896446 685.99077205 685.92653786 685.51544594 683.40916875 674.88166446 648.06410752 584.33619119 474.51985657 347.84066095 300.00000000 300.00000000 300.00000000 300.00000000 347.84066095 474.51985657 584.33619119 648.06410752 674.88166446 683.40916875 685.51544594 685.92653786 685.99077205 685.99896446 685.99986452 685.99997118 685.99999033 685.99999427 685.99999560 685.99999728 685.99999869 685.99999924 685.99999924 685.99999869 685.99999728 685.99999560 685.99999427 685.99999033 685.99997118 685.99986452 685.99896446 685.99077205 685.92653786 685.51544594 683.40916875 674.88166446 648.06410752 584.33619119 474.51985657 347.84066095 300.00000000 300.00000000 300.00000000 300.00000000 300.00000000 452.43310866 569.75210498 639.70606500 671.19260089 682.14222862 685.16732603 685.84734772 685.97504760 685.99593720 685.99917337 685.99976182 685.99990859 685.99994664 685.99996027 685.99997381 685.99998533 685.99999040 685.99999040 685.99998533 685.99997381 685.99996027 685.99994664 685.99990859 685.99976182 685.99917337 685.99593720 685.97504760 685.84734772 685.16732603 682.14222862 671.19260089 639.70606500 569.75210498 452.43310866 300.00000000 300.00000000 300.00000000 300.00000000 300.00000000 300.00000000 426.81458615 541.26789611 620.02989774 661.23840200 678.19026837 683.87688318 685.48455364 685.88204529 685.97212765 685.99219110 685.99728169 685.99883156 685.99929869 685.99948191 685.99964621 685.99978522 685.99985127 685.99985127 685.99978522 685.99964621 685.99948191 685.99929869 685.99883156 685.99728169 685.99219110 685.97212765 685.88204529 685.48455364 683.87688318 678.19026837 661.23840200 620.02989774 541.26789611 426.81458615 300.00000000 300.00000000 300.00000000 300.00000000 300.00000000 300.00000000 382.47498025 489.82405886 581.25703590 638.87270449 667.72651699 679.73098769 684.02871659 685.40584394 685.81618636 685.93589527 685.97413774 685.98769310 685.99233606 685.99431067 685.99597580 685.99737915 685.99808417 685.99808417 685.99737915 685.99597580 685.99431067 685.99233606 685.98769310 685.97413774 685.93589527 685.81618636 685.40584394 684.02871659 679.73098769 667.72651699 638.87270449 581.25703590 489.82405886 382.47498025 300.00000000 300.00000000 300.00000000 300.00000000 300.00000000 300.00000000 300.00000000 407.68579232 516.57909618 595.84306245 643.66109641 668.11420365 678.98101637 683.35080359 684.98431102 685.57634336 685.80486238 685.89756825 685.93320117 685.94966529 685.96320314 685.97458711 685.98053271 685.98053271 685.97458711 685.96320314 685.94966529 685.93320117 685.89756825 685.80486238 685.57634336 684.98431102 683.35080359 678.98101637 668.11420365 643.66109641 595.84306245 516.57909618 407.68579232 300.00000000 300.00000000 300.00000000 300.00000000 300.00000000 300.00000000 300.00000000 300.00000000 300.00000000 430.54157486 526.24374357 596.34780947 640.33699730 664.21128487 676.02170821 681.40254829 683.75594207 684.83132978 685.32518139 685.53600919 685.64208602 685.72987774 685.80400947 685.84382172 685.84382172 685.80400947 685.72987774 685.64208602 685.53600919 685.32518139 684.83132978 683.75594207 681.40254829 676.02170821 664.21128487 640.33699730 596.34780947 526.24374357 430.54157486 300.00000000 300.00000000 300.00000000 300.00000000 300.00000000 300.00000000 300.00000000 300.00000000 300.00000000 300.00000000 356.03916469 430.77604671 517.82592425 585.06127288 628.53139280 654.76768536 669.04998675 676.46170709 680.42988315 682.47251708 683.43123015 683.95772403 684.40905289 684.79533287 685.00706631 685.00706631 684.79533287 684.40905289 683.95772403 683.43123015 682.47251708 680.42988315 676.46170709 669.04998675 654.76768536 628.53139280 585.06127288 517.82592425 430.77604671 356.03916469 300.00000000 300.00000000 300.00000000 300.00000000 300.00000000 300.00000000 300.00000000 300.00000000 300.00000000 300.00000000 300.00000000 300.00000000 409.37004870 496.60351103 558.84549306 605.58335928 635.33938274 653.51759456 664.89642252 671.38478404 674.69319890 676.68472338 678.50940881 680.10961340 680.99902964 680.99902964 680.10961340 678.50940881 676.68472338 674.69319890 671.38478404 664.89642252 653.51759456 635.33938274 605.58335928 558.84549306 496.60351103 409.37004870 300.00000000 300.00000000 300.00000000 300.00000000 300.00000000 300.00000000 300.00000000 300.00000000 300.00000000 300.00000000 300.00000000 300.00000000 300.00000000 300.00000000 300.00000000 389.21454524 449.31679604 516.86807259 563.85115026 597.84505945 622.83282580 638.26926658 646.66952310 652.26759113 658.01585713 663.23562404 666.14912125 666.14912125 663.23562404 658.01585713 652.26759113 646.66952310 638.26926658 622.83282580 597.84505945 563.85115026 516.86807259 449.31679604 389.21454524 300.00000000 300.00000000 300.00000000 300.00000000 300.00000000 300.00000000 300.00000000 300.00000000 300.00000000 300.00000000 300.00000000 300.00000000 300.00000000 300.00000000 300.00000000 300.00000000 300.00000000 300.00000000 396.92145993 447.95384897 496.58223604 538.03458813 564.14733227 578.79784482 589.87901146 604.00274559 617.27225906 624.54126819 624.54126819 617.27225906 604.00274559 589.87901146 578.79784482 564.14733227 538.03458813 496.58223604 447.95384897 396.92145993 300.00000000 300.00000000 300.00000000 300.00000000 300.00000000 300.00000000 300.00000000 300.00000000 300.00000000 300.00000000 300.00000000 300.00000000 300.00000000 300.00000000 300.00000000 300.00000000 300.00000000 300.00000000 300.00000000 300.00000000 300.00000000 300.00000000 366.58664654 416.37060732 443.28478183 457.77479306 471.13144407 500.07394602 526.28068611 539.50476600 539.50476600 526.28068611 500.07394602 471.13144407 457.77479306 443.28478183 416.37060732 366.58664654 300.00000000 300.00000000 300.00000000 300.00000000 300.00000000 300.00000000 300.00000000 300.00000000 300.00000000 300.00000000 300.00000000 300.00000000 300.00000000 300.00000000 300.00000000 300.00000000 300.00000000 300.00000000 300.00000000 300.00000000 300.00000000 300.00000000 300.00000000 300.00000000 300.00000000 300.00000000 300.00000000 300.00000000 300.00000000 364.54535967 403.04362882 418.27982092 418.27982092 403.04362882 364.54535967 300.00000000 300.00000000 300.00000000 300.00000000 300.00000000 300.00000000 300.00000000 300.00000000 300.00000000 300.00000000 300.00000000 300.00000000 300.00000000 300.00000000 300.00000000 300.00000000 300.00000000 300.00000000 300.00000000 300.00000000 300.00000000 300.00000000 300.00000000 300.00000000 300.00000000 300.00000000 300.00000000 300.00000000 300.00000000 300.00000000 300.00000000 300.00000000 300.00000000 300.00000000 300.00000000 300.00000000 300.00000000 300.00000000 300.00000000 300.00000000 300.00000000 300.00000000 300.00000000 300.00000000 300.00000000 300.00000000 300.00000000 300.00000000 300.00000000 300.00000000 300.00000000 300.00000000 300.00000000 300.00000000 300.00000000 300.00000000 300.00000000 300.00000000 300.00000000 300.00000000 300.00000000 300.00000000 300.00000000 300.00000000 300.00000000 300.00000000 300.00000000 300.00000000 300.00000000 300.00000000 300.00000000 300.00000000 300.00000000 300.00000000 300.00000000 300.00000000 300.00000000 300.00000000 300.00000000 300.00000000 300.00000000 300.00000000 300.00000000 300.00000000 300.00000000 300.00000000 300.00000000 300.00000000 300.00000000 300.00000000 300.00000000 300.00000000 300.00000000 300.00000000 300.00000000 300.00000000 300.00000000 300.00000000 300.00000000 300.00000000 300.00000000 300.00000000 300.00000000 300.00000000 300.00000000 300.00000000 300.00000000 300.00000000 300.00000000 300.00000000 300.00000000 300.00000000 300.00000000 300.00000000 300.00000000 300.00000000 300.00000000 300.00000000 300.00000000 300.00000000 300.00000000 300.00000000 300.00000000 300.00000000 300.00000000 300.00000000 300.00000000 300.00000000 300.00000000 300.00000000 300.00000000 300.00000000 300.00000000 300.00000000 300.00000000 300.00000000 300.00000000 300.00000000 300.00000000 300.00000000 300.00000000 300.00000000 300.00000000 300.00000000 300.00000000 300.00000000 300.00000000 300.00000000 300.00000000 300.00000000 300.00000000 300.00000000 300.00000000 300.00000000 300.00000000 300.00000000 300.00000000 300.00000000 300.00000000 300.00000000 300.00000000 300.00000000 300.00000000 300.00000000 300.00000000 300.00000000 300.00000000 300.00000000 300.00000000 300.00000000 300.00000000 300.00000000 300.00000000 300.00000000 300.00000000 300.00000000 300.00000000 300.00000000 300.00000000 300.00000000 300.00000000 300.00000000 300.00000000 300.00000000 300.00000000 300.00000000 300.00000000 300.00000000 300.00000000 300.00000000 300.00000000 300.00000000 300.00000000 300.00000000 300.00000000 300.00000000 300.00000000 300.00000000 300.00000000 300.00000000 300.00000000 300.00000000 300.00000000 300.00000000 300.00000000 300.00000000 300.00000000 300.00000000 300.00000000 300.00000000 300.00000000 300.00000000 300.00000000 300.00000000 300.00000000 300.00000000 300.00000000 300.00000000 300.00000000 300.00000000 300.00000000 300.00000000 300.00000000 300.00000000 300.00000000 300.00000000 300.00000000 300.00000000 300.00000000 300.00000000 300.00000000 300.00000000 300.00000000 300.00000000 300.00000000 300.00000000 300.00000000 300.00000000 300.00000000 300.00000000 300.00000000 300.00000000 300.00000000 300.00000000 300.00000000 300.00000000 300.00000000 300.00000000 300.00000000 300.00000000 300.00000000 300.00000000 300.00000000 300.00000000 300.00000000 300.00000000 300.00000000 300.00000000 300.00000000 300.00000000 300.00000000 300.00000000 300.00000000 300.00000000 300.00000000 300.00000000 300.00000000 300.00000000 300.00000000 300.00000000 300.00000000 300.00000000 300.00000000 300.00000000 300.00000000 300.00000000 300.00000000 300.00000000 300.00000000 300.00000000 300.00000000 300.00000000 300.00000000 300.00000000 300.00000000 300.00000000 300.00000000 300.00000000 300.00000000 300.00000000 300.00000000 300.00000000 300.00000000 300.00000000 300.00000000 300.00000000 300.00000000 300.00000000 300.00000000 300.00000000 300.00000000 300.00000000 300.00000000 300.00000000 300.00000000 300.00000000 300.00000000 300.00000000 300.00000000 300.00000000 300.00000000 300.00000000 300.00000000 300.00000000 300.00000000 300.00000000 300.00000000 300.00000000 300.00000000 300.00000000 300.00000000 300.00000000 300.00000000 300.00000000 300.00000000 300.00000000 300.00000000 300.00000000 300.00000000 300.00000000 300.00000000 300.00000000 300.00000000 300.00000000 300.00000000 300.00000000 300.00000000 