# vtk DataFile Version 3.0
VTK - Matlab export
ASCII
DATASET STRUCTURED_POINTS
DIMENSIONS 40 40 1
SPACING 1 1 1
ORIGIN 0 0 0
POINT_DATA 1600
SCALARS lambda-2 float 1
LOOKUP_TABLE default
7.22156776 7.22156776 7.22156776 7.22156776 7.22156776 7.22156776 7.22156776 7.22156776 7.22156776 7.22156776 7.22156776 7.22156776 7.22156776 7.22156776 7.22156776 7.22156776 7.22156776 7.22156776 7.22156776 7.22156776 7.22156776 7.22156776 7.22156776 7.22156776 7.22156776 7.22156776 7.22156776 7.22156776 7.22156776 7.22156776 7.22156776 7.22156776 7.22156776 7.22156776 7.22156776 7.22156776 7.22156776 7.22156776 7.22156776 7.22156776 7.22156776 7.22156776 7.22156776 7.22156776 7.22156776 7.22156776 7.22156776 7.22156776 7.22156776 7.22156776 7.22156776 7.22156776 7.22156776 7.22156776 7.22156776 7.22156776 7.22156776 7.22156776 7.22156776 7.22156776 7.22156776 7.22156776 7.22156776 7.22156776 7.22156776 7.22156776 7.22156776 7.22156776 7.22156776 7.22156776 7.22156776 7.22156776 7.22156776 7.22156776 7.22156776 7.22156776 7.22156776 7.22156776 7.22156776 7.22156776 7.22156776 7.22156776 7.22156776 7.22156776 7.22156776 7.22156776 7.22156776 7.22156776 7.22156776 7.22156776 7.22156776 7.22156776 7.22156776 7.22156776 7.22156776 7.22156776 7.22156776 7.22156776 7.22156776 7.22156776 7.22156776 7.22156776 7.22156776 7.22156776 7.22156776 7.22156776 7.22156776 7.22156776 7.22156776 7.22156776 7.22156776 7.22156776 7.22156776 7.22156776 7.22156776 7.22156776 7.22156776 7.22156776 7.22156776 7.22156776 7.22156776 7.22156776 7.22156776 7.22156776 7.22156776 7.22156776 7.22156776 7.22156776 7.22156776 7.22156776 7.22156776 7.22156776 7.22156776 7.22156776 7.22156776 7.22156776 7.22156776 7.22156776 7.22156776 7.22156776 7.22156776 7.22156776 7.22156776 7.22156776 7.22156776 7.22156776 7.22156776 7.22156776 7.22156776 7.22156776 7.22156776 7.22156776 7.22156776 7.22156776 7.22156776 7.22156776 7.22156776 7.22156776 7.22156776 7.22156776 7.22156776 7.22156776 7.22156776 7.22156776 7.22156776 7.22156776 7.22156776 7.22156776 7.22156776 7.22156776 7.22156776 7.22156776 7.22156776 7.22156776 7.22156776 7.22156776 7.22156776 7.22156776 7.22156776 7.22156776 7.22156776 7.22156776 7.22156776 7.22156776 7.22156776 7.22156776 7.22156776 7.22156776 7.22156776 7.22156776 7.22156776 7.22156776 7.22156776 7.22156776 7.22156776 7.22156776 7.22156776 7.22156776 7.22156776 7.22156776 7.22156776 7.22156776 7.22156776 7.22156776 7.22156776 7.22156776 7.22156776 7.22156776 7.22156776 7.22156776 7.22156776 7.22156776 7.22156776 7.22156776 7.22156776 7.22156776 7.22156776 7.22156776 7.22156776 7.22156776 7.22156776 7.22156776 7.22156776 7.22156776 7.22156776 7.22156776 7.22156776 7.22156776 7.22156776 7.22156776 7.22156776 7.22156776 7.22156776 7.22156776 7.22156776 7.22156776 7.22156776 7.22156776 7.22156776 7.22156776 7.22156776 7.22156776 7.22156776 7.22156776 7.22156776 7.22156776 7.22156776 7.22156776 7.22156776 7.22156776 7.22156776 7.22156776 7.22156776 7.22156776 7.22156776 7.22156776 7.22156776 7.22156776 7.22156776 7.22156776 7.22156776 7.22156776 7.22156776 7.22156776 7.22156776 7.22156776 7.22156776 7.22156776 7.22156776 7.22156776 7.22156776 7.22156776 7.22156776 7.22156776 7.22156776 7.22156776 7.22156776 7.22156776 7.22156776 7.22156776 7.22156776 7.22156776 7.22156776 7.22156776 7.22156776 7.22156776 7.22156776 7.22156776 7.22156776 7.22156776 7.22156776 7.22156776 7.22156776 7.22156776 7.22156776 7.22156776 7.22156776 7.22156776 7.22156776 7.22156776 7.22156776 7.22156776 7.22156776 7.22156776 7.22156776 7.22156776 7.22156776 7.22156776 7.22156776 7.22156776 7.22156776 7.22156776 7.22156776 7.22156776 7.22156776 7.22156776 7.22156776 7.22156776 7.22156776 7.22156776 7.22156776 7.22156776 7.22156776 7.22156776 7.22156776 7.22156776 7.22156776 7.22156776 7.22156776 7.22156776 7.22156776 7.22156776 7.22156776 7.22156776 7.22156776 7.22156776 7.22156776 7.21343284 7.20833711 7.20622917 7.20622917 7.20833711 7.21343284 7.22156776 7.22156776 7.22156776 7.22156776 7.22156776 7.22156776 7.22156776 7.22156776 7.22156776 7.22156776 7.22156776 7.22156776 7.22156776 7.22156776 7.22156776 7.22156776 7.22156776 7.22156776 7.22156776 7.22156776 7.22156776 7.22156776 7.22156776 7.22156776 7.22156776 7.22156776 7.22156776 7.22156776 7.22156776 7.21309160 7.20685649 7.20376017 7.20240383 7.20115437 7.19766871 7.19424568 7.19242123 7.19242123 7.19424568 7.19766871 7.20115437 7.20240383 7.20376017 7.20685649 7.21309160 7.22156776 7.22156776 7.22156776 7.22156776 7.22156776 7.22156776 7.22156776 7.22156776 7.22156776 7.22156776 7.22156776 7.22156776 7.22156776 7.22156776 7.22156776 7.22156776 7.22156776 7.22156776 7.22156776 7.22156776 7.22156776 7.22156776 7.20919520 7.20304263 7.19752230 7.19319667 7.19110146 7.19060754 7.19043554 7.18947230 7.18816359 7.18734004 7.18734004 7.18816359 7.18947230 7.19043554 7.19060754 7.19110146 7.19319667 7.19752230 7.20304263 7.20919520 7.22156776 7.22156776 7.22156776 7.22156776 7.22156776 7.22156776 7.22156776 7.22156776 7.22156776 7.22156776 7.22156776 7.22156776 7.22156776 7.22156776 7.22156776 7.22156776 7.22156776 7.22156776 7.21011139 7.20285594 7.19517315 7.19081285 7.18864992 7.18792358 7.18850554 7.18987226 7.19123184 7.19199894 7.19222277 7.19224084 7.19224084 7.19222277 7.19199894 7.19123184 7.18987226 7.18850554 7.18792358 7.18864992 7.19081285 7.19517315 7.20285594 7.21011139 7.22156776 7.22156776 7.22156776 7.22156776 7.22156776 7.22156776 7.22156776 7.22156776 7.22156776 7.22156776 7.22156776 7.22156776 7.22156776 7.22156776 7.22156776 7.20763940 7.19728545 7.19118646 7.18806676 7.18790186 7.18957064 7.19201379 7.19470032 7.19726404 7.19937058 7.20082743 7.20167687 7.20206153 7.20206153 7.20167687 7.20082743 7.19937058 7.19726404 7.19470032 7.19201379 7.18957064 7.18790186 7.18806676 7.19118646 7.19728545 7.20763940 7.22156776 7.22156776 7.22156776 7.22156776 7.22156776 7.22156776 7.22156776 7.22156776 7.22156776 7.22156776 7.22156776 7.22156776 7.21411683 7.20474971 7.19486112 7.18900476 7.18762100 7.18939090 7.19298605 7.19713096 7.20097722 7.20420129 7.20674842 7.20864025 7.20993675 7.21073307 7.21111303 7.21111303 7.21073307 7.20993675 7.20864025 7.20674842 7.20420129 7.20097722 7.19713096 7.19298605 7.18939090 7.18762100 7.18900476 7.19486112 7.20474971 7.21411683 7.22156776 7.22156776 7.22156776 7.22156776 7.22156776 7.22156776 7.22156776 7.22156776 7.22156776 7.22156776 7.20442998 7.19344890 7.18786863 7.18759248 7.19107241 7.19625548 7.20158602 7.20617968 7.20973165 7.21231216 7.21412568 7.21536747 7.21618710 7.21668842 7.21692907 7.21692907 7.21668842 7.21618710 7.21536747 7.21412568 7.21231216 7.20973165 7.20617968 7.20158602 7.19625548 7.19107241 7.18759248 7.18786863 7.19344890 7.20442998 7.22156776 7.22156776 7.22156776 7.22156776 7.22156776 7.22156776 7.22156776 7.22156776 7.22156776 7.20691601 7.19365979 7.18690811 7.18692054 7.19159639 7.19815846 7.20450123 7.20961531 7.21330638 7.21578741 7.21739011 7.21841012 7.21905778 7.21946611 7.21971090 7.21982765 7.21982765 7.21971090 7.21946611 7.21905778 7.21841012 7.21739011 7.21578741 7.21330638 7.20961531 7.20450123 7.19815846 7.19159639 7.18692054 7.18690811 7.19365979 7.20691601 7.22156776 7.22156776 7.22156776 7.22156776 7.22156776 7.22156776 7.22156776 7.20991263 7.19584159 7.18651130 7.18513196 7.19015162 7.19794706 7.20547791 7.21129862 7.21523012 7.21766784 7.21910411 7.21993181 7.22040995 7.22069137 7.22086006 7.22095850 7.22100489 7.22100489 7.22095850 7.22086006 7.22069137 7.22040995 7.21993181 7.21910411 7.21766784 7.21523012 7.21129862 7.20547791 7.19794706 7.19015162 7.18513196 7.18651130 7.19584159 7.20991263 7.22156776 7.22156776 7.22156776 7.22156776 7.22156776 7.22156776 7.20369755 7.18933221 7.18344694 7.18657867 7.19492972 7.20397978 7.21110753 7.21575881 7.21844449 7.21988032 7.22061784 7.22099393 7.22118977 7.22129604 7.22135631 7.22139040 7.22140622 7.22140622 7.22139040 7.22135631 7.22129604 7.22118977 7.22099393 7.22061784 7.21988032 7.21844449 7.21575881 7.21110753 7.20397978 7.19492972 7.18657867 7.18344694 7.18933221 7.20369755 7.22156776 7.22156776 7.22156776 7.22156776 7.22156776 7.22156776 7.20021742 7.18614584 7.18293073 7.18904028 7.19909045 7.20827431 7.21458785 7.21819205 7.22000165 7.22083774 7.22120869 7.22137350 7.22144969 7.22148736 7.22150745 7.22151843 7.22152345 7.22152345 7.22151843 7.22150745 7.22148736 7.22144969 7.22137350 7.22120869 7.22083774 7.22000165 7.21819205 7.21458785 7.20827431 7.19909045 7.18904028 7.18293073 7.18614584 7.20021742 7.22156776 7.22156776 7.22156776 7.22156776 7.22156776 7.21471864 7.19718728 7.18464536 7.18313366 7.19071377 7.20140270 7.21042016 7.21617829 7.21921032 7.22059671 7.22117127 7.22139690 7.22148518 7.22152142 7.22153771 7.22154588 7.22155023 7.22155221 7.22155221 7.22155023 7.22154588 7.22153771 7.22152142 7.22148518 7.22139690 7.22117127 7.22059671 7.21921032 7.21617829 7.21042016 7.20140270 7.19071377 7.18313366 7.18464536 7.19718728 7.21471864 7.22156776 7.22156776 7.22156776 7.22156776 7.21471864 7.19718728 7.18464536 7.18313366 7.19071377 7.20140270 7.21042016 7.21617829 7.21921032 7.22059671 7.22117127 7.22139690 7.22148518 7.22152142 7.22153771 7.22154588 7.22155023 7.22155221 7.22155221 7.22155023 7.22154588 7.22153771 7.22152142 7.22148518 7.22139690 7.22117127 7.22059671 7.21921032 7.21617829 7.21042016 7.20140270 7.19071377 7.18313366 7.18464536 7.19718728 7.21471864 7.22156776 7.22156776 7.22156776 7.22156776 7.22156776 7.20021742 7.18614584 7.18293073 7.18904028 7.19909045 7.20827431 7.21458785 7.21819205 7.22000165 7.22083774 7.22120869 7.22137350 7.22144969 7.22148736 7.22150745 7.22151843 7.22152345 7.22152345 7.22151843 7.22150745 7.22148736 7.22144969 7.22137350 7.22120869 7.22083774 7.22000165 7.21819205 7.21458785 7.20827431 7.19909045 7.18904028 7.18293073 7.18614584 7.20021742 7.22156776 7.22156776 7.22156776 7.22156776 7.22156776 7.22156776 7.20369755 7.18933221 7.18344694 7.18657867 7.19492972 7.20397978 7.21110753 7.21575881 7.21844449 7.21988032 7.22061784 7.22099393 7.22118977 7.22129604 7.22135631 7.22139040 7.22140622 7.22140622 7.22139040 7.22135631 7.22129604 7.22118977 7.22099393 7.22061784 7.21988032 7.21844449 7.21575881 7.21110753 7.20397978 7.19492972 7.18657867 7.18344694 7.18933221 7.20369755 7.22156776 7.22156776 7.22156776 7.22156776 7.22156776 7.22156776 7.20991263 7.19584159 7.18651130 7.18513196 7.19015162 7.19794706 7.20547791 7.21129862 7.21523012 7.21766784 7.21910411 7.21993181 7.22040995 7.22069137 7.22086006 7.22095850 7.22100489 7.22100489 7.22095850 7.22086006 7.22069137 7.22040995 7.21993181 7.21910411 7.21766784 7.21523012 7.21129862 7.20547791 7.19794706 7.19015162 7.18513196 7.18651130 7.19584159 7.20991263 7.22156776 7.22156776 7.22156776 7.22156776 7.22156776 7.22156776 7.22156776 7.20691601 7.19365979 7.18690811 7.18692054 7.19159639 7.19815846 7.20450123 7.20961531 7.21330638 7.21578741 7.21739011 7.21841012 7.21905778 7.21946611 7.21971090 7.21982765 7.21982765 7.21971090 7.21946611 7.21905778 7.21841012 7.21739011 7.21578741 7.21330638 7.20961531 7.20450123 7.19815846 7.19159639 7.18692054 7.18690811 7.19365979 7.20691601 7.22156776 7.22156776 7.22156776 7.22156776 7.22156776 7.22156776 7.22156776 7.22156776 7.22156776 7.20442998 7.19344890 7.18786863 7.18759248 7.19107241 7.19625548 7.20158602 7.20617968 7.20973165 7.21231216 7.21412568 7.21536747 7.21618710 7.21668842 7.21692907 7.21692907 7.21668842 7.21618710 7.21536747 7.21412568 7.21231216 7.20973165 7.20617968 7.20158602 7.19625548 7.19107241 7.18759248 7.18786863 7.19344890 7.20442998 7.22156776 7.22156776 7.22156776 7.22156776 7.22156776 7.22156776 7.22156776 7.22156776 7.22156776 7.22156776 7.21411683 7.20474971 7.19486112 7.18900476 7.18762100 7.18939090 7.19298605 7.19713096 7.20097722 7.20420129 7.20674842 7.20864025 7.20993675 7.21073307 7.21111303 7.21111303 7.21073307 7.20993675 7.20864025 7.20674842 7.20420129 7.20097722 7.19713096 7.19298605 7.18939090 7.18762100 7.18900476 7.19486112 7.20474971 7.21411683 7.22156776 7.22156776 7.22156776 7.22156776 7.22156776 7.22156776 7.22156776 7.22156776 7.22156776 7.22156776 7.22156776 7.22156776 7.20763940 7.19728545 7.19118646 7.18806676 7.18790186 7.18957064 7.19201379 7.19470032 7.19726404 7.19937058 7.20082743 7.20167687 7.20206153 7.20206153 7.20167687 7.20082743 7.19937058 7.19726404 7.19470032 7.19201379 7.18957064 7.18790186 7.18806676 7.19118646 7.19728545 7.20763940 7.22156776 7.22156776 7.22156776 7.22156776 7.22156776 7.22156776 7.22156776 7.22156776 7.22156776 7.22156776 7.22156776 7.22156776 7.22156776 7.22156776 7.22156776 7.21011139 7.20285594 7.19517315 7.19081285 7.18864992 7.18792358 7.18850554 7.18987226 7.19123184 7.19199894 7.19222277 7.19224084 7.19224084 7.19222277 7.19199894 7.19123184 7.18987226 7.18850554 7.18792358 7.18864992 7.19081285 7.19517315 7.20285594 7.21011139 7.22156776 7.22156776 7.22156776 7.22156776 7.22156776 7.22156776 7.22156776 7.22156776 7.22156776 7.22156776 7.22156776 7.22156776 7.22156776 7.22156776 7.22156776 7.22156776 7.22156776 7.22156776 7.20919520 7.20304263 7.19752230 7.19319667 7.19110146 7.19060754 7.19043554 7.18947230 7.18816359 7.18734004 7.18734004 7.18816359 7.18947230 7.19043554 7.19060754 7.19110146 7.19319667 7.19752230 7.20304263 7.20919520 7.22156776 7.22156776 7.22156776 7.22156776 7.22156776 7.22156776 7.22156776 7.22156776 7.22156776 7.22156776 7.22156776 7.22156776 7.22156776 7.22156776 7.22156776 7.22156776 7.22156776 7.22156776 7.22156776 7.22156776 7.22156776 7.22156776 7.21309160 7.20685649 7.20376017 7.20240383 7.20115437 7.19766871 7.19424568 7.19242123 7.19242123 7.19424568 7.19766871 7.20115437 7.20240383 7.20376017 7.20685649 7.21309160 7.22156776 7.22156776 7.22156776 7.22156776 7.22156776 7.22156776 7.22156776 7.22156776 7.22156776 7.22156776 7.22156776 7.22156776 7.22156776 7.22156776 7.22156776 7.22156776 7.22156776 7.22156776 7.22156776 7.22156776 7.22156776 7.22156776 7.22156776 7.22156776 7.22156776 7.22156776 7.22156776 7.22156776 7.22156776 7.21343284 7.20833711 7.20622917 7.20622917 7.20833711 7.21343284 7.22156776 7.22156776 7.22156776 7.22156776 7.22156776 7.22156776 7.22156776 7.22156776 7.22156776 7.22156776 7.22156776 7.22156776 7.22156776 7.22156776 7.22156776 7.22156776 7.22156776 7.22156776 7.22156776 7.22156776 7.22156776 7.22156776 7.22156776 7.22156776 7.22156776 7.22156776 7.22156776 7.22156776 7.22156776 7.22156776 7.22156776 7.22156776 7.22156776 7.22156776 7.22156776 7.22156776 7.22156776 7.22156776 7.22156776 7.22156776 7.22156776 7.22156776 7.22156776 7.22156776 7.22156776 7.22156776 7.22156776 7.22156776 7.22156776 7.22156776 7.22156776 7.22156776 7.22156776 7.22156776 7.22156776 7.22156776 7.22156776 7.22156776 7.22156776 7.22156776 7.22156776 7.22156776 7.22156776 7.22156776 7.22156776 7.22156776 7.22156776 7.22156776 7.22156776 7.22156776 7.22156776 7.22156776 7.22156776 7.22156776 7.22156776 7.22156776 7.22156776 7.22156776 7.22156776 7.22156776 7.22156776 7.22156776 7.22156776 7.22156776 7.22156776 7.22156776 7.22156776 7.22156776 7.22156776 7.22156776 7.22156776 7.22156776 7.22156776 7.22156776 7.22156776 7.22156776 7.22156776 7.22156776 7.22156776 7.22156776 7.22156776 7.22156776 7.22156776 7.22156776 7.22156776 7.22156776 7.22156776 7.22156776 7.22156776 7.22156776 7.22156776 7.22156776 7.22156776 7.22156776 7.22156776 7.22156776 7.22156776 7.22156776 7.22156776 7.22156776 7.22156776 7.22156776 7.22156776 7.22156776 7.22156776 7.22156776 7.22156776 7.22156776 7.22156776 7.22156776 7.22156776 7.22156776 7.22156776 7.22156776 7.22156776 7.22156776 7.22156776 7.22156776 7.22156776 7.22156776 7.22156776 7.22156776 7.22156776 7.22156776 7.22156776 7.22156776 7.22156776 7.22156776 7.22156776 7.22156776 7.22156776 7.22156776 7.22156776 7.22156776 7.22156776 7.22156776 7.22156776 7.22156776 7.22156776 7.22156776 7.22156776 7.22156776 7.22156776 7.22156776 7.22156776 7.22156776 7.22156776 7.22156776 7.22156776 7.22156776 7.22156776 7.22156776 7.22156776 7.22156776 7.22156776 7.22156776 7.22156776 7.22156776 7.22156776 7.22156776 7.22156776 7.22156776 7.22156776 7.22156776 7.22156776 7.22156776 7.22156776 7.22156776 7.22156776 7.22156776 7.22156776 7.22156776 7.22156776 7.22156776 7.22156776 7.22156776 7.22156776 7.22156776 7.22156776 7.22156776 7.22156776 7.22156776 7.22156776 7.22156776 7.22156776 7.22156776 7.22156776 7.22156776 7.22156776 7.22156776 7.22156776 7.22156776 7.22156776 7.22156776 7.22156776 7.22156776 7.22156776 7.22156776 7.22156776 7.22156776 7.22156776 7.22156776 7.22156776 7.22156776 7.22156776 7.22156776 7.22156776 7.22156776 7.22156776 7.22156776 7.22156776 7.22156776 7.22156776 7.22156776 7.22156776 7.22156776 7.22156776 7.22156776 7.22156776 7.22156776 7.22156776 7.22156776 7.22156776 7.22156776 7.22156776 7.22156776 7.22156776 7.22156776 7.22156776 7.22156776 7.22156776 7.22156776 7.22156776 7.22156776 7.22156776 7.22156776 7.22156776 7.22156776 7.22156776 7.22156776 7.22156776 7.22156776 7.22156776 7.22156776 7.22156776 7.22156776 7.22156776 7.22156776 7.22156776 7.22156776 7.22156776 7.22156776 7.22156776 7.22156776 7.22156776 7.22156776 7.22156776 7.22156776 7.22156776 7.22156776 7.22156776 7.22156776 7.22156776 7.22156776 7.22156776 7.22156776 7.22156776 7.22156776 7.22156776 7.22156776 7.22156776 7.22156776 7.22156776 7.22156776 7.22156776 7.22156776 7.22156776 7.22156776 7.22156776 7.22156776 7.22156776 7.22156776 7.22156776 7.22156776 7.22156776 7.22156776 7.22156776 7.22156776 7.22156776 7.22156776 7.22156776 7.22156776 7.22156776 7.22156776 7.22156776 7.22156776 7.22156776 7.22156776 7.22156776 7.22156776 7.22156776 7.22156776 7.22156776 7.22156776 7.22156776 7.22156776 7.22156776 7.22156776 7.22156776 7.22156776 7.22156776 7.22156776 7.22156776 7.22156776 7.22156776 7.22156776 7.22156776 