# vtk DataFile Version 3.0
VTK - Matlab export
ASCII
DATASET STRUCTURED_POINTS
DIMENSIONS 40 40 1
SPACING 1 1 1
ORIGIN 0 0 0
POINT_DATA 1600
SCALARS lambda-2 float 1
LOOKUP_TABLE default
7.22156776 7.22156776 7.22156776 7.22156776 7.22156776 7.22156776 7.22156776 7.22156776 7.22156776 7.22156776 7.22156776 7.22156776 7.22156776 7.22156776 7.22156776 7.22156776 7.22156776 7.22156776 7.22156776 7.22156776 7.22156776 7.22156776 7.22156776 7.22156776 7.22156776 7.22156776 7.22156776 7.22156776 7.22156776 7.22156776 7.22156776 7.22156776 7.22156776 7.22156776 7.22156776 7.22156776 7.22156776 7.22156776 7.22156776 7.22156776 7.22156776 7.22156776 7.22156776 7.22156776 7.22156776 7.22156776 7.22156776 7.22156776 7.22156776 7.22156776 7.22156776 7.22156776 7.22156776 7.22156776 7.22156776 7.22156776 7.22156776 7.22156776 7.22156776 7.22156776 7.22156776 7.22156776 7.22156776 7.22156776 7.22156776 7.22156776 7.22156776 7.22156776 7.22156776 7.22156776 7.22156776 7.22156776 7.22156776 7.22156776 7.22156776 7.22156776 7.22156776 7.22156776 7.22156776 7.22156776 7.22156776 7.22156776 7.22156776 7.22156776 7.22156776 7.22156776 7.22156776 7.22156776 7.22156776 7.22156776 7.22156776 7.22156776 7.22156776 7.22156776 7.22156776 7.22156776 7.22156776 7.22156776 7.22156776 7.22156776 7.22156776 7.22156776 7.22156776 7.22156776 7.22156776 7.22156776 7.22156776 7.22156776 7.22156776 7.22156776 7.22156776 7.22156776 7.22156776 7.22156776 7.22156776 7.22156776 7.22156776 7.22156776 7.22156776 7.22156776 7.22156776 7.22156776 7.22156776 7.22156776 7.22156776 7.22156776 7.22156776 7.22156776 7.22156776 7.22156776 7.22156776 7.22156776 7.22156776 7.22156776 7.22156776 7.22156776 7.22156776 7.22156776 7.22156776 7.22156776 7.22156776 7.22156776 7.22156776 7.22156776 7.22156776 7.22156776 7.22156776 7.22156776 7.22156776 7.22156776 7.22156776 7.22156776 7.22156776 7.22156776 7.22156776 7.22156776 7.22156776 7.22156776 7.22156776 7.22156776 7.22156776 7.22156776 7.22156776 7.22156776 7.22156776 7.22156776 7.22156776 7.22156776 7.22156776 7.22156776 7.22156776 7.22156776 7.22156776 7.22156776 7.22156776 7.22156776 7.22156776 7.22156776 7.22156776 7.22156776 7.22156776 7.22156776 7.22156776 7.22156776 7.22156776 7.22156776 7.22156776 7.22156776 7.22156776 7.22156776 7.22156776 7.22156776 7.22156776 7.22156776 7.22156776 7.22156776 7.22156776 7.22156776 7.22156776 7.22156776 7.22156776 7.22156776 7.22156776 7.22156776 7.22156776 7.22156776 7.22156776 7.22156776 7.22156776 7.22156776 7.22156776 7.22156776 7.22156776 7.22156776 7.22156776 7.22156776 7.22156776 7.22156776 7.22156776 7.22156776 7.22156776 7.22156776 7.22156776 7.22156776 7.22156776 7.22156776 7.22156776 7.22156776 7.22156776 7.22156776 7.22156776 7.22156776 7.22156776 7.22156776 7.22156776 7.22156776 7.22156776 7.22156776 7.22156776 7.22156776 7.22156776 7.22156776 7.22156776 7.22156776 7.22156776 7.22156776 7.22156776 7.22156776 7.22156776 7.22156776 7.22156776 7.22156776 7.22156776 7.22156776 7.22156776 7.22156776 7.22156776 7.22156776 7.22156776 7.22156776 7.22156776 7.22156776 7.22156776 7.22156776 7.22156776 7.22156776 7.22156776 7.22156776 7.22156776 7.22156776 7.22156776 7.22156776 7.22156776 7.22156776 7.22156776 7.22156776 7.22156776 7.22156776 7.22156776 7.22156776 7.22156776 7.22156776 7.22156776 7.22156776 7.22156776 7.22156776 7.22156776 7.22156776 7.22156776 7.22156776 7.22156776 7.22156776 7.22156776 7.22156776 7.22156776 7.22156776 7.22156776 7.22156776 7.22156776 7.22156776 7.22156776 7.22156776 7.22156776 7.22156776 7.22156776 7.22156776 7.22156776 7.22156776 7.22156776 7.22156776 7.22156776 7.22156776 7.22156776 7.22156776 7.22156776 7.22156776 7.22156776 7.22156776 7.22156776 7.22156776 7.22156776 7.22156776 7.22156776 7.22156776 7.22156776 7.22156776 7.22156776 7.22156776 7.22156776 7.22156776 7.22156776 7.22156776 7.22156776 7.22156776 7.22156776 7.22156776 7.22156776 7.22083433 7.22044102 7.22029762 7.22029762 7.22044102 7.22083433 7.22156776 7.22156776 7.22156776 7.22156776 7.22156776 7.22156776 7.22156776 7.22156776 7.22156776 7.22156776 7.22156776 7.22156776 7.22156776 7.22156776 7.22156776 7.22156776 7.22156776 7.22156776 7.22156776 7.22156776 7.22156776 7.22156776 7.22156776 7.22156776 7.22156776 7.22156776 7.22156776 7.22156776 7.22156776 7.22079470 7.22021642 7.21986545 7.21963104 7.21941952 7.21907541 7.21879781 7.21866447 7.21866447 7.21879781 7.21907541 7.21941952 7.21963104 7.21986545 7.22021642 7.22079470 7.22156776 7.22156776 7.22156776 7.22156776 7.22156776 7.22156776 7.22156776 7.22156776 7.22156776 7.22156776 7.22156776 7.22156776 7.22156776 7.22156776 7.22156776 7.22156776 7.22156776 7.22156776 7.22156776 7.22156776 7.22156776 7.22156776 7.22042195 7.21976898 7.21910794 7.21850513 7.21804552 7.21770440 7.21742984 7.21717394 7.21697510 7.21687184 7.21687184 7.21697510 7.21717394 7.21742984 7.21770440 7.21804552 7.21850513 7.21910794 7.21976898 7.22042195 7.22156776 7.22156776 7.22156776 7.22156776 7.22156776 7.22156776 7.22156776 7.22156776 7.22156776 7.22156776 7.22156776 7.22156776 7.22156776 7.22156776 7.22156776 7.22156776 7.22156776 7.22156776 7.22050696 7.21971950 7.21877552 7.21798103 7.21728708 7.21669080 7.21621741 7.21585731 7.21558241 7.21536845 7.21521722 7.21513946 7.21513946 7.21521722 7.21536845 7.21558241 7.21585731 7.21621741 7.21669080 7.21728708 7.21798103 7.21877552 7.21971950 7.22050696 7.22156776 7.22156776 7.22156776 7.22156776 7.22156776 7.22156776 7.22156776 7.22156776 7.22156776 7.22156776 7.22156776 7.22156776 7.22156776 7.22156776 7.22156776 7.22022981 7.21905410 7.21801669 7.21704574 7.21621004 7.21551337 7.21494933 7.21451425 7.21419234 7.21395960 7.21379459 7.21368678 7.21363332 7.21363332 7.21368678 7.21379459 7.21395960 7.21419234 7.21451425 7.21494933 7.21551337 7.21621004 7.21704574 7.21801669 7.21905410 7.22022981 7.22156776 7.22156776 7.22156776 7.22156776 7.22156776 7.22156776 7.22156776 7.22156776 7.22156776 7.22156776 7.22156776 7.22156776 7.22092978 7.21998228 7.21872068 7.21748268 7.21635655 7.21536706 7.21454428 7.21389212 7.21339825 7.21304322 7.21280100 7.21264295 7.21254381 7.21248598 7.21245935 7.21245935 7.21248598 7.21254381 7.21264295 7.21280100 7.21304322 7.21339825 7.21389212 7.21454428 7.21536706 7.21635655 7.21748268 7.21872068 7.21998228 7.22092978 7.22156776 7.22156776 7.22156776 7.22156776 7.22156776 7.22156776 7.22156776 7.22156776 7.22156776 7.22156776 7.22002442 7.21864288 7.21726152 7.21595935 7.21480349 7.21383284 7.21306657 7.21250047 7.21211243 7.21187023 7.21173698 7.21167640 7.21165737 7.21165679 7.21166001 7.21166001 7.21165679 7.21165737 7.21167640 7.21173698 7.21187023 7.21211243 7.21250047 7.21306657 7.21383284 7.21480349 7.21595935 7.21726152 7.21864288 7.22002442 7.22156776 7.22156776 7.22156776 7.22156776 7.22156776 7.22156776 7.22156776 7.22156776 7.22156776 7.22036024 7.21889229 7.21738601 7.21592104 7.21458093 7.21343176 7.21251242 7.21183416 7.21138254 7.21112395 7.21101402 7.21100530 7.21105337 7.21112117 7.21118109 7.21121536 7.21121536 7.21118109 7.21112117 7.21105337 7.21100530 7.21101402 7.21112395 7.21138254 7.21183416 7.21251242 7.21343176 7.21458093 7.21592104 7.21738601 7.21889229 7.22036024 7.22156776 7.22156776 7.22156776 7.22156776 7.22156776 7.22156776 7.22156776 7.22071987 7.21941453 7.21787836 7.21628921 7.21476975 7.21341625 7.21229709 7.21144828 7.21087318 7.21054682 7.21042399 7.21044910 7.21056507 7.21072017 7.21087215 7.21098996 7.21105368 7.21105368 7.21098996 7.21087215 7.21072017 7.21056507 7.21044910 7.21042399 7.21054682 7.21087318 7.21144828 7.21229709 7.21341625 7.21476975 7.21628921 7.21787836 7.21941453 7.22071987 7.22156776 7.22156776 7.22156776 7.22156776 7.22156776 7.22156776 7.22024299 7.21872825 7.21708057 7.21541982 7.21386433 7.21251265 7.21143302 7.21065753 7.21018213 7.20997228 7.20997263 7.21011805 7.21034356 7.21059156 7.21081586 7.21098299 7.21107166 7.21107166 7.21098299 7.21081586 7.21059156 7.21034356 7.21011805 7.20997263 7.20997228 7.21018213 7.21065753 7.21143302 7.21251265 7.21386433 7.21541982 7.21708057 7.21872825 7.22024299 7.22156776 7.22156776 7.22156776 7.22156776 7.22156776 7.22156776 7.21993794 7.21826832 7.21653209 7.21481971 7.21324269 7.21189868 7.21085462 7.21013902 7.20974197 7.20962170 7.20971527 7.20995065 7.21025727 7.21057350 7.21085055 7.21105344 7.21116014 7.21116014 7.21105344 7.21085055 7.21057350 7.21025727 7.20995065 7.20971527 7.20962170 7.20974197 7.21013902 7.21085462 7.21189868 7.21324269 7.21481971 7.21653209 7.21826832 7.21993794 7.22156776 7.22156776 7.22156776 7.22156776 7.22156776 7.22108596 7.21969151 7.21801774 7.21624929 7.21451314 7.21292679 7.21158885 7.21056561 7.20988354 7.20952951 7.20945782 7.20960151 7.20988493 7.21023462 7.21058690 7.21089170 7.21111334 7.21122948 7.21122948 7.21111334 7.21089170 7.21058690 7.21023462 7.20988493 7.20960151 7.20945782 7.20952951 7.20988354 7.21056561 7.21158885 7.21292679 7.21451314 7.21624929 7.21801774 7.21969151 7.22108596 7.22156776 7.22156776 7.22156776 7.22156776 7.22108596 7.21969151 7.21801774 7.21624929 7.21451314 7.21292679 7.21158885 7.21056561 7.20988354 7.20952951 7.20945782 7.20960151 7.20988493 7.21023462 7.21058690 7.21089170 7.21111334 7.21122948 7.21122948 7.21111334 7.21089170 7.21058690 7.21023462 7.20988493 7.20960151 7.20945782 7.20952951 7.20988354 7.21056561 7.21158885 7.21292679 7.21451314 7.21624929 7.21801774 7.21969151 7.22108596 7.22156776 7.22156776 7.22156776 7.22156776 7.22156776 7.21993794 7.21826832 7.21653209 7.21481971 7.21324269 7.21189868 7.21085462 7.21013902 7.20974197 7.20962170 7.20971527 7.20995065 7.21025727 7.21057350 7.21085055 7.21105344 7.21116014 7.21116014 7.21105344 7.21085055 7.21057350 7.21025727 7.20995065 7.20971527 7.20962170 7.20974197 7.21013902 7.21085462 7.21189868 7.21324269 7.21481971 7.21653209 7.21826832 7.21993794 7.22156776 7.22156776 7.22156776 7.22156776 7.22156776 7.22156776 7.22024299 7.21872825 7.21708057 7.21541982 7.21386433 7.21251265 7.21143302 7.21065753 7.21018213 7.20997228 7.20997263 7.21011805 7.21034356 7.21059156 7.21081586 7.21098299 7.21107166 7.21107166 7.21098299 7.21081586 7.21059156 7.21034356 7.21011805 7.20997263 7.20997228 7.21018213 7.21065753 7.21143302 7.21251265 7.21386433 7.21541982 7.21708057 7.21872825 7.22024299 7.22156776 7.22156776 7.22156776 7.22156776 7.22156776 7.22156776 7.22071987 7.21941453 7.21787836 7.21628921 7.21476975 7.21341625 7.21229709 7.21144828 7.21087318 7.21054682 7.21042399 7.21044910 7.21056507 7.21072017 7.21087215 7.21098996 7.21105368 7.21105368 7.21098996 7.21087215 7.21072017 7.21056507 7.21044910 7.21042399 7.21054682 7.21087318 7.21144828 7.21229709 7.21341625 7.21476975 7.21628921 7.21787836 7.21941453 7.22071987 7.22156776 7.22156776 7.22156776 7.22156776 7.22156776 7.22156776 7.22156776 7.22036024 7.21889229 7.21738601 7.21592104 7.21458093 7.21343176 7.21251242 7.21183416 7.21138254 7.21112395 7.21101402 7.21100530 7.21105337 7.21112117 7.21118109 7.21121536 7.21121536 7.21118109 7.21112117 7.21105337 7.21100530 7.21101402 7.21112395 7.21138254 7.21183416 7.21251242 7.21343176 7.21458093 7.21592104 7.21738601 7.21889229 7.22036024 7.22156776 7.22156776 7.22156776 7.22156776 7.22156776 7.22156776 7.22156776 7.22156776 7.22156776 7.22002442 7.21864288 7.21726152 7.21595935 7.21480349 7.21383284 7.21306657 7.21250047 7.21211243 7.21187023 7.21173698 7.21167640 7.21165737 7.21165679 7.21166001 7.21166001 7.21165679 7.21165737 7.21167640 7.21173698 7.21187023 7.21211243 7.21250047 7.21306657 7.21383284 7.21480349 7.21595935 7.21726152 7.21864288 7.22002442 7.22156776 7.22156776 7.22156776 7.22156776 7.22156776 7.22156776 7.22156776 7.22156776 7.22156776 7.22156776 7.22092978 7.21998228 7.21872068 7.21748268 7.21635655 7.21536706 7.21454428 7.21389212 7.21339825 7.21304322 7.21280100 7.21264295 7.21254381 7.21248598 7.21245935 7.21245935 7.21248598 7.21254381 7.21264295 7.21280100 7.21304322 7.21339825 7.21389212 7.21454428 7.21536706 7.21635655 7.21748268 7.21872068 7.21998228 7.22092978 7.22156776 7.22156776 7.22156776 7.22156776 7.22156776 7.22156776 7.22156776 7.22156776 7.22156776 7.22156776 7.22156776 7.22156776 7.22022981 7.21905410 7.21801669 7.21704574 7.21621004 7.21551337 7.21494933 7.21451425 7.21419234 7.21395960 7.21379459 7.21368678 7.21363332 7.21363332 7.21368678 7.21379459 7.21395960 7.21419234 7.21451425 7.21494933 7.21551337 7.21621004 7.21704574 7.21801669 7.21905410 7.22022981 7.22156776 7.22156776 7.22156776 7.22156776 7.22156776 7.22156776 7.22156776 7.22156776 7.22156776 7.22156776 7.22156776 7.22156776 7.22156776 7.22156776 7.22156776 7.22050696 7.21971950 7.21877552 7.21798103 7.21728708 7.21669080 7.21621741 7.21585731 7.21558241 7.21536845 7.21521722 7.21513946 7.21513946 7.21521722 7.21536845 7.21558241 7.21585731 7.21621741 7.21669080 7.21728708 7.21798103 7.21877552 7.21971950 7.22050696 7.22156776 7.22156776 7.22156776 7.22156776 7.22156776 7.22156776 7.22156776 7.22156776 7.22156776 7.22156776 7.22156776 7.22156776 7.22156776 7.22156776 7.22156776 7.22156776 7.22156776 7.22156776 7.22042195 7.21976898 7.21910794 7.21850513 7.21804552 7.21770440 7.21742984 7.21717394 7.21697510 7.21687184 7.21687184 7.21697510 7.21717394 7.21742984 7.21770440 7.21804552 7.21850513 7.21910794 7.21976898 7.22042195 7.22156776 7.22156776 7.22156776 7.22156776 7.22156776 7.22156776 7.22156776 7.22156776 7.22156776 7.22156776 7.22156776 7.22156776 7.22156776 7.22156776 7.22156776 7.22156776 7.22156776 7.22156776 7.22156776 7.22156776 7.22156776 7.22156776 7.22079470 7.22021642 7.21986545 7.21963104 7.21941952 7.21907541 7.21879781 7.21866447 7.21866447 7.21879781 7.21907541 7.21941952 7.21963104 7.21986545 7.22021642 7.22079470 7.22156776 7.22156776 7.22156776 7.22156776 7.22156776 7.22156776 7.22156776 7.22156776 7.22156776 7.22156776 7.22156776 7.22156776 7.22156776 7.22156776 7.22156776 7.22156776 7.22156776 7.22156776 7.22156776 7.22156776 7.22156776 7.22156776 7.22156776 7.22156776 7.22156776 7.22156776 7.22156776 7.22156776 7.22156776 7.22083433 7.22044102 7.22029762 7.22029762 7.22044102 7.22083433 7.22156776 7.22156776 7.22156776 7.22156776 7.22156776 7.22156776 7.22156776 7.22156776 7.22156776 7.22156776 7.22156776 7.22156776 7.22156776 7.22156776 7.22156776 7.22156776 7.22156776 7.22156776 7.22156776 7.22156776 7.22156776 7.22156776 7.22156776 7.22156776 7.22156776 7.22156776 7.22156776 7.22156776 7.22156776 7.22156776 7.22156776 7.22156776 7.22156776 7.22156776 7.22156776 7.22156776 7.22156776 7.22156776 7.22156776 7.22156776 7.22156776 7.22156776 7.22156776 7.22156776 7.22156776 7.22156776 7.22156776 7.22156776 7.22156776 7.22156776 7.22156776 7.22156776 7.22156776 7.22156776 7.22156776 7.22156776 7.22156776 7.22156776 7.22156776 7.22156776 7.22156776 7.22156776 7.22156776 7.22156776 7.22156776 7.22156776 7.22156776 7.22156776 7.22156776 7.22156776 7.22156776 7.22156776 7.22156776 7.22156776 7.22156776 7.22156776 7.22156776 7.22156776 7.22156776 7.22156776 7.22156776 7.22156776 7.22156776 7.22156776 7.22156776 7.22156776 7.22156776 7.22156776 7.22156776 7.22156776 7.22156776 7.22156776 7.22156776 7.22156776 7.22156776 7.22156776 7.22156776 7.22156776 7.22156776 7.22156776 7.22156776 7.22156776 7.22156776 7.22156776 7.22156776 7.22156776 7.22156776 7.22156776 7.22156776 7.22156776 7.22156776 7.22156776 7.22156776 7.22156776 7.22156776 7.22156776 7.22156776 7.22156776 7.22156776 7.22156776 7.22156776 7.22156776 7.22156776 7.22156776 7.22156776 7.22156776 7.22156776 7.22156776 7.22156776 7.22156776 7.22156776 7.22156776 7.22156776 7.22156776 7.22156776 7.22156776 7.22156776 7.22156776 7.22156776 7.22156776 7.22156776 7.22156776 7.22156776 7.22156776 7.22156776 7.22156776 7.22156776 7.22156776 7.22156776 7.22156776 7.22156776 7.22156776 7.22156776 7.22156776 7.22156776 7.22156776 7.22156776 7.22156776 7.22156776 7.22156776 7.22156776 7.22156776 7.22156776 7.22156776 7.22156776 7.22156776 7.22156776 7.22156776 7.22156776 7.22156776 7.22156776 7.22156776 7.22156776 7.22156776 7.22156776 7.22156776 7.22156776 7.22156776 7.22156776 7.22156776 7.22156776 7.22156776 7.22156776 7.22156776 7.22156776 7.22156776 7.22156776 7.22156776 7.22156776 7.22156776 7.22156776 7.22156776 7.22156776 7.22156776 7.22156776 7.22156776 7.22156776 7.22156776 7.22156776 7.22156776 7.22156776 7.22156776 7.22156776 7.22156776 7.22156776 7.22156776 7.22156776 7.22156776 7.22156776 7.22156776 7.22156776 7.22156776 7.22156776 7.22156776 7.22156776 7.22156776 7.22156776 7.22156776 7.22156776 7.22156776 7.22156776 7.22156776 7.22156776 7.22156776 7.22156776 7.22156776 7.22156776 7.22156776 7.22156776 7.22156776 7.22156776 7.22156776 7.22156776 7.22156776 7.22156776 7.22156776 7.22156776 7.22156776 7.22156776 7.22156776 7.22156776 7.22156776 7.22156776 7.22156776 7.22156776 7.22156776 7.22156776 7.22156776 7.22156776 7.22156776 7.22156776 7.22156776 7.22156776 7.22156776 7.22156776 7.22156776 7.22156776 7.22156776 7.22156776 7.22156776 7.22156776 7.22156776 7.22156776 7.22156776 7.22156776 7.22156776 7.22156776 7.22156776 7.22156776 7.22156776 7.22156776 7.22156776 7.22156776 7.22156776 7.22156776 7.22156776 7.22156776 7.22156776 7.22156776 7.22156776 7.22156776 7.22156776 7.22156776 7.22156776 7.22156776 7.22156776 7.22156776 7.22156776 7.22156776 7.22156776 7.22156776 7.22156776 7.22156776 7.22156776 7.22156776 7.22156776 7.22156776 7.22156776 7.22156776 7.22156776 7.22156776 7.22156776 7.22156776 7.22156776 7.22156776 7.22156776 7.22156776 7.22156776 7.22156776 7.22156776 7.22156776 7.22156776 7.22156776 7.22156776 7.22156776 7.22156776 7.22156776 7.22156776 7.22156776 7.22156776 7.22156776 7.22156776 7.22156776 7.22156776 7.22156776 7.22156776 7.22156776 7.22156776 7.22156776 7.22156776 7.22156776 7.22156776 7.22156776 7.22156776 7.22156776 7.22156776 7.22156776 