# vtk DataFile Version 3.0
VTK - Matlab export
ASCII
DATASET STRUCTURED_POINTS
DIMENSIONS 40 40 1
SPACING 1 1 1
ORIGIN 0 0 0
POINT_DATA 1600
SCALARS Temperature float 1
LOOKUP_TABLE default
300.00000000 300.00000000 300.00000000 300.00000000 300.00000000 300.00000000 300.00000000 300.00000000 300.00000000 300.00000000 300.00000000 300.00000000 300.00000000 300.00000000 300.00000000 300.00000000 300.00000000 300.00000000 300.00000000 300.00000000 300.00000000 300.00000000 300.00000000 300.00000000 300.00000000 300.00000000 300.00000000 300.00000000 300.00000000 300.00000000 300.00000000 300.00000000 300.00000000 300.00000000 300.00000000 300.00000000 300.00000000 300.00000000 300.00000000 300.00000000 300.00000000 300.00000000 300.00000000 300.00000000 300.00000000 300.00000000 300.00000000 300.00000000 300.00000000 300.00000000 300.00000000 300.00000000 300.00000000 300.00000000 300.00000000 300.00000000 300.00000000 300.00000000 300.00000000 300.00000000 300.00000000 300.00000000 300.00000000 300.00000000 300.00000000 300.00000000 300.00000000 300.00000000 300.00000000 300.00000000 300.00000000 300.00000000 300.00000000 300.00000000 300.00000000 300.00000000 300.00000000 300.00000000 300.00000000 300.00000000 300.00000000 300.00000000 300.00000000 300.00000000 300.00000000 300.00000000 300.00000000 300.00000000 300.00000000 300.00000000 300.00000000 300.00000000 300.00000000 300.00000000 300.00000000 300.00000000 300.00000000 300.00000000 300.00000000 300.00000000 300.00000000 300.00000000 300.00000000 300.00000000 300.00000000 300.00000000 300.00000000 300.00000000 300.00000000 300.00000000 300.00000000 300.00000000 300.00000000 300.00000000 300.00000000 300.00000000 300.00000000 300.00000000 300.00000000 300.00000000 300.00000000 300.00000000 300.00000000 300.00000000 300.00000000 300.00000000 300.00000000 300.00000000 300.00000000 300.00000000 300.00000000 300.00000000 300.00000000 300.00000000 300.00000000 300.00000000 300.00000000 300.00000000 300.00000000 300.00000000 300.00000000 300.00000000 300.00000000 300.00000000 300.00000000 300.00000000 300.00000000 300.00000000 300.00000000 300.00000000 300.00000000 300.00000000 300.00000000 300.00000000 300.00000000 300.00000000 300.00000000 300.00000000 300.00000000 300.00000000 300.00000000 300.00000000 300.00000000 300.00000000 300.00000000 300.00000000 300.00000000 300.00000000 300.00000000 300.00000000 300.00000000 300.00000000 300.00000000 300.00000000 300.00000000 300.00000000 300.00000000 300.00000000 300.00000000 300.00000000 300.00000000 300.00000000 300.00000000 300.00000000 300.00000000 300.00000000 300.00000000 300.00000000 300.00000000 300.00000000 300.00000000 300.00000000 300.00000000 300.00000000 300.00000000 300.00000000 300.00000000 300.00000000 300.00000000 300.00000000 300.00000000 300.00000000 300.00000000 300.00000000 300.00000000 300.00000000 300.00000000 300.00000000 300.00000000 300.00000000 300.00000000 300.00000000 300.00000000 300.00000000 300.00000000 300.00000000 300.00000000 300.00000000 300.00000000 300.00000000 300.00000000 300.00000000 300.00000000 300.00000000 300.00000000 300.00000000 300.00000000 300.00000000 300.00000000 300.00000000 300.00000000 300.00000000 300.00000000 300.00000000 300.00000000 300.00000000 300.00000000 300.00000000 300.00000000 300.00000000 300.00000000 300.00000000 300.00000000 300.00000000 300.00000000 300.00000000 300.00000000 300.00000000 300.00000000 300.00000000 300.00000000 300.00000000 300.00000000 300.00000000 300.00000000 300.00000000 300.00000000 300.00000000 300.00000000 300.00000000 300.00000000 300.00000000 300.00000000 300.00000000 300.00000000 300.00000000 300.00000000 300.00000000 300.00000000 300.00000000 300.00000000 300.00000000 300.00000000 300.00000000 300.00000000 300.00000000 300.00000000 300.00000000 300.00000000 300.00000000 300.00000000 300.00000000 300.00000000 300.00000000 300.00000000 300.00000000 300.00000000 300.00000000 300.00000000 300.00000000 300.00000000 300.00000000 300.00000000 300.00000000 300.00000000 300.00000000 300.00000000 300.00000000 300.00000000 300.00000000 300.00000000 300.00000000 300.00000000 300.00000000 300.00000000 300.00000000 300.00000000 300.00000000 300.00000000 300.00000000 300.00000000 300.00000000 300.00000000 300.00000000 300.00000000 300.00000000 300.00000000 300.00000000 300.00000000 300.00000000 300.00000000 300.00000000 300.00000000 300.00000000 300.00000000 300.00000000 300.00000000 300.00000000 300.00000000 300.00000000 300.00000000 300.00000000 300.00000000 300.00000000 300.00000000 300.00000000 300.00000000 319.78461863 330.42964578 334.32838536 334.32838536 330.42964578 319.78461863 300.00000000 300.00000000 300.00000000 300.00000000 300.00000000 300.00000000 300.00000000 300.00000000 300.00000000 300.00000000 300.00000000 300.00000000 300.00000000 300.00000000 300.00000000 300.00000000 300.00000000 300.00000000 300.00000000 300.00000000 300.00000000 300.00000000 300.00000000 300.00000000 300.00000000 300.00000000 300.00000000 300.00000000 300.00000000 319.96408912 335.24128269 344.84981495 351.54818836 357.68967901 367.33581809 375.09262385 378.83603230 378.83603230 375.09262385 367.33581809 357.68967901 351.54818836 344.84981495 335.24128269 319.96408912 300.00000000 300.00000000 300.00000000 300.00000000 300.00000000 300.00000000 300.00000000 300.00000000 300.00000000 300.00000000 300.00000000 300.00000000 300.00000000 300.00000000 300.00000000 300.00000000 300.00000000 300.00000000 300.00000000 300.00000000 300.00000000 300.00000000 328.73748202 345.66004604 363.30315156 379.86942847 393.02809658 403.25293303 411.72464818 419.54849975 425.58040734 428.71771514 428.71771514 425.58040734 419.54849975 411.72464818 403.25293303 393.02809658 379.86942847 363.30315156 345.66004604 328.73748202 300.00000000 300.00000000 300.00000000 300.00000000 300.00000000 300.00000000 300.00000000 300.00000000 300.00000000 300.00000000 300.00000000 300.00000000 300.00000000 300.00000000 300.00000000 300.00000000 300.00000000 300.00000000 325.77142634 345.46301682 369.69107298 390.89716312 410.24153139 427.62916221 442.19428993 453.93869950 463.34101712 470.80869626 476.11344263 478.85205676 478.85205676 476.11344263 470.80869626 463.34101712 453.93869950 442.19428993 427.62916221 410.24153139 390.89716312 369.69107298 345.46301682 325.77142634 300.00000000 300.00000000 300.00000000 300.00000000 300.00000000 300.00000000 300.00000000 300.00000000 300.00000000 300.00000000 300.00000000 300.00000000 300.00000000 300.00000000 300.00000000 331.92778268 360.69950499 386.99747926 412.63123498 435.87044526 456.48567189 474.39353267 489.37089229 501.47612683 510.98555951 518.15077962 523.00585804 525.46251184 525.46251184 523.00585804 518.15077962 510.98555951 501.47612683 489.37089229 474.39353267 456.48567189 435.87044526 412.63123498 386.99747926 360.69950499 331.92778268 300.00000000 300.00000000 300.00000000 300.00000000 300.00000000 300.00000000 300.00000000 300.00000000 300.00000000 300.00000000 300.00000000 300.00000000 314.80444374 337.12502248 367.46860834 398.16854684 427.31847934 454.39643516 478.59943627 499.62254513 517.43369337 532.09586505 543.80753542 552.85442460 559.49553257 563.88050697 566.06504650 566.06504650 563.88050697 559.49553257 552.85442460 543.80753542 532.09586505 517.43369337 499.62254513 478.59943627 454.39643516 427.31847934 398.16854684 367.46860834 337.12502248 314.80444374 300.00000000 300.00000000 300.00000000 300.00000000 300.00000000 300.00000000 300.00000000 300.00000000 300.00000000 300.00000000 335.61726935 368.11332637 401.53316584 434.29409120 465.00818143 492.81316854 517.13875505 537.80156918 554.90192079 568.69297983 579.51408049 587.72566440 593.64003860 597.47801334 599.36828772 599.36828772 597.47801334 593.64003860 587.72566440 579.51408049 568.69297983 554.90192079 537.80156918 517.13875505 492.81316854 465.00818143 434.29409120 401.53316584 368.11332637 335.61726935 300.00000000 300.00000000 300.00000000 300.00000000 300.00000000 300.00000000 300.00000000 300.00000000 300.00000000 327.49198861 361.37815701 396.90760694 432.61153489 466.86997283 498.35792675 526.21818654 550.03551721 569.79246584 585.75368084 598.33446684 608.00063712 615.19494860 620.28559699 623.54087820 625.12880076 625.12880076 623.54087820 620.28559699 615.19494860 608.00063712 598.33446684 585.75368084 569.79246584 550.03551721 526.21818654 498.35792675 466.86997283 432.61153489 396.90760694 361.37815701 327.49198861 300.00000000 300.00000000 300.00000000 300.00000000 300.00000000 300.00000000 300.00000000 319.11527241 348.80002763 384.26596215 421.85421260 459.16448312 494.34192757 526.04888458 553.50412401 576.44488053 595.02585345 609.67475967 620.94722296 629.41392103 635.58626749 639.87567858 642.57979718 643.88684325 643.88684325 642.57979718 639.87567858 635.58626749 629.41392103 620.94722296 609.67475967 595.02585345 576.44488053 553.50412401 526.04888458 494.34192757 459.16448312 421.85421260 384.26596215 348.80002763 319.11527241 300.00000000 300.00000000 300.00000000 300.00000000 300.00000000 300.00000000 329.78748485 364.15215782 402.16515004 441.52312787 479.96778875 515.63960666 547.24038962 574.08852325 596.06481801 613.47804415 626.89541484 636.98423536 644.39393634 649.68484736 653.29616203 655.54104727 656.61644495 656.61644495 655.54104727 653.29616203 649.68484736 644.39393634 636.98423536 626.89541484 613.47804415 596.06481801 574.08852325 547.24038962 515.63960666 479.96778875 441.52312787 402.16515004 364.15215782 329.78748485 300.00000000 300.00000000 300.00000000 300.00000000 300.00000000 300.00000000 336.57560808 374.38863983 414.41685515 455.04840635 494.21394363 530.11001968 561.49618899 587.78046056 608.95658407 625.44881954 637.92508035 647.12956024 653.76313195 658.41600021 661.54235651 663.46194429 664.37427254 664.37427254 663.46194429 661.54235651 658.41600021 653.76313195 647.12956024 637.92508035 625.44881954 608.95658407 587.78046056 561.49618899 530.11001968 494.21394363 455.04840635 414.41685515 374.38863983 336.57560808 300.00000000 300.00000000 300.00000000 300.00000000 300.00000000 310.77134055 342.05178117 379.94969030 420.71631361 461.94172405 501.44239447 537.41372310 568.64578460 594.59742414 615.32429356 631.31233505 643.28198383 652.01639115 658.24155294 662.56147708 665.43653538 667.18847549 668.01705735 668.01705735 667.18847549 665.43653538 662.56147708 658.24155294 652.01639115 643.28198383 631.31233505 615.32429356 594.59742414 568.64578460 537.41372310 501.44239447 461.94172405 420.71631361 379.94969030 342.05178117 310.77134055 300.00000000 300.00000000 300.00000000 300.00000000 310.77134055 342.05178117 379.94969030 420.71631361 461.94172405 501.44239447 537.41372310 568.64578460 594.59742414 615.32429356 631.31233505 643.28198383 652.01639115 658.24155294 662.56147708 665.43653538 667.18847549 668.01705735 668.01705735 667.18847549 665.43653538 662.56147708 658.24155294 652.01639115 643.28198383 631.31233505 615.32429356 594.59742414 568.64578460 537.41372310 501.44239447 461.94172405 420.71631361 379.94969030 342.05178117 310.77134055 300.00000000 300.00000000 300.00000000 300.00000000 300.00000000 336.57560808 374.38863983 414.41685515 455.04840635 494.21394363 530.11001968 561.49618899 587.78046056 608.95658407 625.44881954 637.92508035 647.12956024 653.76313195 658.41600021 661.54235651 663.46194429 664.37427254 664.37427254 663.46194429 661.54235651 658.41600021 653.76313195 647.12956024 637.92508035 625.44881954 608.95658407 587.78046056 561.49618899 530.11001968 494.21394363 455.04840635 414.41685515 374.38863983 336.57560808 300.00000000 300.00000000 300.00000000 300.00000000 300.00000000 300.00000000 329.78748485 364.15215782 402.16515004 441.52312787 479.96778875 515.63960666 547.24038962 574.08852325 596.06481801 613.47804415 626.89541484 636.98423536 644.39393634 649.68484736 653.29616203 655.54104727 656.61644495 656.61644495 655.54104727 653.29616203 649.68484736 644.39393634 636.98423536 626.89541484 613.47804415 596.06481801 574.08852325 547.24038962 515.63960666 479.96778875 441.52312787 402.16515004 364.15215782 329.78748485 300.00000000 300.00000000 300.00000000 300.00000000 300.00000000 300.00000000 319.11527241 348.80002763 384.26596215 421.85421260 459.16448312 494.34192757 526.04888458 553.50412401 576.44488053 595.02585345 609.67475967 620.94722296 629.41392103 635.58626749 639.87567858 642.57979718 643.88684325 643.88684325 642.57979718 639.87567858 635.58626749 629.41392103 620.94722296 609.67475967 595.02585345 576.44488053 553.50412401 526.04888458 494.34192757 459.16448312 421.85421260 384.26596215 348.80002763 319.11527241 300.00000000 300.00000000 300.00000000 300.00000000 300.00000000 300.00000000 300.00000000 327.49198861 361.37815701 396.90760694 432.61153489 466.86997283 498.35792675 526.21818654 550.03551721 569.79246584 585.75368084 598.33446684 608.00063712 615.19494860 620.28559699 623.54087820 625.12880076 625.12880076 623.54087820 620.28559699 615.19494860 608.00063712 598.33446684 585.75368084 569.79246584 550.03551721 526.21818654 498.35792675 466.86997283 432.61153489 396.90760694 361.37815701 327.49198861 300.00000000 300.00000000 300.00000000 300.00000000 300.00000000 300.00000000 300.00000000 300.00000000 300.00000000 335.61726935 368.11332637 401.53316584 434.29409120 465.00818143 492.81316854 517.13875505 537.80156918 554.90192079 568.69297983 579.51408049 587.72566440 593.64003860 597.47801334 599.36828772 599.36828772 597.47801334 593.64003860 587.72566440 579.51408049 568.69297983 554.90192079 537.80156918 517.13875505 492.81316854 465.00818143 434.29409120 401.53316584 368.11332637 335.61726935 300.00000000 300.00000000 300.00000000 300.00000000 300.00000000 300.00000000 300.00000000 300.00000000 300.00000000 300.00000000 314.80444374 337.12502248 367.46860834 398.16854684 427.31847934 454.39643516 478.59943627 499.62254513 517.43369337 532.09586505 543.80753542 552.85442460 559.49553257 563.88050697 566.06504650 566.06504650 563.88050697 559.49553257 552.85442460 543.80753542 532.09586505 517.43369337 499.62254513 478.59943627 454.39643516 427.31847934 398.16854684 367.46860834 337.12502248 314.80444374 300.00000000 300.00000000 300.00000000 300.00000000 300.00000000 300.00000000 300.00000000 300.00000000 300.00000000 300.00000000 300.00000000 300.00000000 331.92778268 360.69950499 386.99747926 412.63123498 435.87044526 456.48567189 474.39353267 489.37089229 501.47612683 510.98555951 518.15077962 523.00585804 525.46251184 525.46251184 523.00585804 518.15077962 510.98555951 501.47612683 489.37089229 474.39353267 456.48567189 435.87044526 412.63123498 386.99747926 360.69950499 331.92778268 300.00000000 300.00000000 300.00000000 300.00000000 300.00000000 300.00000000 300.00000000 300.00000000 300.00000000 300.00000000 300.00000000 300.00000000 300.00000000 300.00000000 300.00000000 325.77142634 345.46301682 369.69107298 390.89716312 410.24153139 427.62916221 442.19428993 453.93869950 463.34101712 470.80869626 476.11344263 478.85205676 478.85205676 476.11344263 470.80869626 463.34101712 453.93869950 442.19428993 427.62916221 410.24153139 390.89716312 369.69107298 345.46301682 325.77142634 300.00000000 300.00000000 300.00000000 300.00000000 300.00000000 300.00000000 300.00000000 300.00000000 300.00000000 300.00000000 300.00000000 300.00000000 300.00000000 300.00000000 300.00000000 300.00000000 300.00000000 300.00000000 328.73748202 345.66004604 363.30315156 379.86942847 393.02809658 403.25293303 411.72464818 419.54849975 425.58040734 428.71771514 428.71771514 425.58040734 419.54849975 411.72464818 403.25293303 393.02809658 379.86942847 363.30315156 345.66004604 328.73748202 300.00000000 300.00000000 300.00000000 300.00000000 300.00000000 300.00000000 300.00000000 300.00000000 300.00000000 300.00000000 300.00000000 300.00000000 300.00000000 300.00000000 300.00000000 300.00000000 300.00000000 300.00000000 300.00000000 300.00000000 300.00000000 300.00000000 319.96408912 335.24128269 344.84981495 351.54818836 357.68967901 367.33581809 375.09262385 378.83603230 378.83603230 375.09262385 367.33581809 357.68967901 351.54818836 344.84981495 335.24128269 319.96408912 300.00000000 300.00000000 300.00000000 300.00000000 300.00000000 300.00000000 300.00000000 300.00000000 300.00000000 300.00000000 300.00000000 300.00000000 300.00000000 300.00000000 300.00000000 300.00000000 300.00000000 300.00000000 300.00000000 300.00000000 300.00000000 300.00000000 300.00000000 300.00000000 300.00000000 300.00000000 300.00000000 300.00000000 300.00000000 319.78461863 330.42964578 334.32838536 334.32838536 330.42964578 319.78461863 300.00000000 300.00000000 300.00000000 300.00000000 300.00000000 300.00000000 300.00000000 300.00000000 300.00000000 300.00000000 300.00000000 300.00000000 300.00000000 300.00000000 300.00000000 300.00000000 300.00000000 300.00000000 300.00000000 300.00000000 300.00000000 300.00000000 300.00000000 300.00000000 300.00000000 300.00000000 300.00000000 300.00000000 300.00000000 300.00000000 300.00000000 300.00000000 300.00000000 300.00000000 300.00000000 300.00000000 300.00000000 300.00000000 300.00000000 300.00000000 300.00000000 300.00000000 300.00000000 300.00000000 300.00000000 300.00000000 300.00000000 300.00000000 300.00000000 300.00000000 300.00000000 300.00000000 300.00000000 300.00000000 300.00000000 300.00000000 300.00000000 300.00000000 300.00000000 300.00000000 300.00000000 300.00000000 300.00000000 300.00000000 300.00000000 300.00000000 300.00000000 300.00000000 300.00000000 300.00000000 300.00000000 300.00000000 300.00000000 300.00000000 300.00000000 300.00000000 300.00000000 300.00000000 300.00000000 300.00000000 300.00000000 300.00000000 300.00000000 300.00000000 300.00000000 300.00000000 300.00000000 300.00000000 300.00000000 300.00000000 300.00000000 300.00000000 300.00000000 300.00000000 300.00000000 300.00000000 300.00000000 300.00000000 300.00000000 300.00000000 300.00000000 300.00000000 300.00000000 300.00000000 300.00000000 300.00000000 300.00000000 300.00000000 300.00000000 300.00000000 300.00000000 300.00000000 300.00000000 300.00000000 300.00000000 300.00000000 300.00000000 300.00000000 300.00000000 300.00000000 300.00000000 300.00000000 300.00000000 300.00000000 300.00000000 300.00000000 300.00000000 300.00000000 300.00000000 300.00000000 300.00000000 300.00000000 300.00000000 300.00000000 300.00000000 300.00000000 300.00000000 300.00000000 300.00000000 300.00000000 300.00000000 300.00000000 300.00000000 300.00000000 300.00000000 300.00000000 300.00000000 300.00000000 300.00000000 300.00000000 300.00000000 300.00000000 300.00000000 300.00000000 300.00000000 300.00000000 300.00000000 300.00000000 300.00000000 300.00000000 300.00000000 300.00000000 300.00000000 300.00000000 300.00000000 300.00000000 300.00000000 300.00000000 300.00000000 300.00000000 300.00000000 300.00000000 300.00000000 300.00000000 300.00000000 300.00000000 300.00000000 300.00000000 300.00000000 300.00000000 300.00000000 300.00000000 300.00000000 300.00000000 300.00000000 300.00000000 300.00000000 300.00000000 300.00000000 300.00000000 300.00000000 300.00000000 300.00000000 300.00000000 300.00000000 300.00000000 300.00000000 300.00000000 300.00000000 300.00000000 300.00000000 300.00000000 300.00000000 300.00000000 300.00000000 300.00000000 300.00000000 300.00000000 300.00000000 300.00000000 300.00000000 300.00000000 300.00000000 300.00000000 300.00000000 300.00000000 300.00000000 300.00000000 300.00000000 300.00000000 300.00000000 300.00000000 300.00000000 300.00000000 300.00000000 300.00000000 300.00000000 300.00000000 300.00000000 300.00000000 300.00000000 300.00000000 300.00000000 300.00000000 300.00000000 300.00000000 300.00000000 300.00000000 300.00000000 300.00000000 300.00000000 300.00000000 300.00000000 300.00000000 300.00000000 300.00000000 300.00000000 300.00000000 300.00000000 300.00000000 300.00000000 300.00000000 300.00000000 300.00000000 300.00000000 300.00000000 300.00000000 300.00000000 300.00000000 300.00000000 300.00000000 300.00000000 300.00000000 300.00000000 300.00000000 300.00000000 300.00000000 300.00000000 300.00000000 300.00000000 300.00000000 300.00000000 300.00000000 300.00000000 300.00000000 300.00000000 300.00000000 300.00000000 300.00000000 300.00000000 300.00000000 300.00000000 300.00000000 300.00000000 300.00000000 300.00000000 300.00000000 300.00000000 300.00000000 300.00000000 300.00000000 300.00000000 300.00000000 300.00000000 300.00000000 300.00000000 300.00000000 300.00000000 300.00000000 300.00000000 300.00000000 300.00000000 300.00000000 300.00000000 300.00000000 300.00000000 300.00000000 300.00000000 300.00000000 300.00000000 300.00000000 300.00000000 300.00000000 300.00000000 300.00000000 300.00000000 300.00000000 300.00000000 300.00000000 300.00000000 300.00000000 300.00000000 300.00000000 300.00000000 300.00000000 300.00000000 300.00000000 300.00000000 300.00000000 300.00000000 300.00000000 300.00000000 300.00000000 300.00000000 300.00000000 300.00000000 300.00000000 