# vtk DataFile Version 3.0
VTK - Matlab export
ASCII
DATASET STRUCTURED_POINTS
DIMENSIONS 40 40 1
SPACING 1 1 1
ORIGIN 0 0 0
POINT_DATA 1600
SCALARS Temperature float 1
LOOKUP_TABLE default
300.00000000 300.00000000 300.00000000 300.00000000 300.00000000 300.00000000 300.00000000 300.00000000 300.00000000 300.00000000 300.00000000 300.00000000 300.00000000 300.00000000 300.00000000 300.00000000 300.00000000 300.00000000 300.00000000 300.00000000 300.00000000 300.00000000 300.00000000 300.00000000 300.00000000 300.00000000 300.00000000 300.00000000 300.00000000 300.00000000 300.00000000 300.00000000 300.00000000 300.00000000 300.00000000 300.00000000 300.00000000 300.00000000 300.00000000 300.00000000 300.00000000 300.00000000 300.00000000 300.00000000 300.00000000 300.00000000 300.00000000 300.00000000 300.00000000 300.00000000 300.00000000 300.00000000 300.00000000 300.00000000 300.00000000 300.00000000 300.00000000 300.00000000 300.00000000 300.00000000 300.00000000 300.00000000 300.00000000 300.00000000 300.00000000 300.00000000 300.00000000 300.00000000 300.00000000 300.00000000 300.00000000 300.00000000 300.00000000 300.00000000 300.00000000 300.00000000 300.00000000 300.00000000 300.00000000 300.00000000 300.00000000 300.00000000 300.00000000 300.00000000 300.00000000 300.00000000 300.00000000 300.00000000 300.00000000 300.00000000 300.00000000 300.00000000 300.00000000 300.00000000 300.00000000 300.00000000 300.00000000 300.00000000 300.00000000 300.00000000 300.00000000 300.00000000 300.00000000 300.00000000 300.00000000 300.00000000 300.00000000 300.00000000 300.00000000 300.00000000 300.00000000 300.00000000 300.00000000 300.00000000 300.00000000 300.00000000 300.00000000 300.00000000 300.00000000 300.00000000 300.00000000 300.00000000 300.00000000 300.00000000 300.00000000 300.00000000 300.00000000 300.00000000 300.00000000 300.00000000 300.00000000 300.00000000 300.00000000 300.00000000 300.00000000 300.00000000 300.00000000 300.00000000 300.00000000 300.00000000 300.00000000 300.00000000 300.00000000 300.00000000 300.00000000 300.00000000 300.00000000 300.00000000 300.00000000 300.00000000 300.00000000 300.00000000 300.00000000 300.00000000 300.00000000 300.00000000 300.00000000 300.00000000 300.00000000 300.00000000 300.00000000 300.00000000 300.00000000 300.00000000 300.00000000 300.00000000 300.00000000 300.00000000 300.00000000 300.00000000 300.00000000 300.00000000 300.00000000 300.00000000 300.00000000 300.00000000 300.00000000 300.00000000 300.00000000 300.00000000 300.00000000 300.00000000 300.00000000 300.00000000 300.00000000 300.00000000 300.00000000 300.00000000 300.00000000 300.00000000 300.00000000 300.00000000 300.00000000 300.00000000 300.00000000 300.00000000 300.00000000 300.00000000 300.00000000 300.00000000 300.00000000 300.00000000 300.00000000 300.00000000 300.00000000 300.00000000 300.00000000 300.00000000 300.00000000 300.00000000 300.00000000 300.00000000 300.00000000 300.00000000 300.00000000 300.00000000 300.00000000 300.00000000 300.00000000 300.00000000 300.00000000 300.00000000 300.00000000 300.00000000 300.00000000 300.00000000 300.00000000 300.00000000 300.00000000 300.00000000 300.00000000 300.00000000 300.00000000 300.00000000 300.00000000 300.00000000 300.00000000 300.00000000 300.00000000 300.00000000 300.00000000 300.00000000 300.00000000 300.00000000 300.00000000 300.00000000 300.00000000 300.00000000 300.00000000 300.00000000 300.00000000 300.00000000 300.00000000 300.00000000 300.00000000 300.00000000 300.00000000 300.00000000 300.00000000 300.00000000 300.00000000 300.00000000 300.00000000 300.00000000 300.00000000 300.00000000 300.00000000 300.00000000 300.00000000 300.00000000 300.00000000 300.00000000 300.00000000 300.00000000 300.00000000 300.00000000 300.00000000 300.00000000 300.00000000 300.00000000 300.00000000 300.00000000 300.00000000 300.00000000 300.00000000 300.00000000 300.00000000 300.00000000 300.00000000 300.00000000 300.00000000 300.00000000 300.00000000 300.00000000 300.00000000 300.00000000 300.00000000 300.00000000 300.00000000 300.00000000 300.00000000 300.00000000 300.00000000 300.00000000 300.00000000 300.00000000 300.00000000 300.00000000 300.00000000 300.00000000 300.00000000 300.00000000 300.00000000 300.00000000 300.00000000 300.00000000 300.00000000 300.00000000 300.00000000 300.00000000 300.00000000 300.00000000 300.00000000 300.00000000 300.00000000 300.00000000 300.00000000 300.00000000 300.00000000 300.00000000 300.00000000 300.00000000 300.00000000 300.00000000 300.00000000 300.00000000 300.00000000 330.70978979 347.44698517 353.63273493 353.63273493 347.44698517 330.70978979 300.00000000 300.00000000 300.00000000 300.00000000 300.00000000 300.00000000 300.00000000 300.00000000 300.00000000 300.00000000 300.00000000 300.00000000 300.00000000 300.00000000 300.00000000 300.00000000 300.00000000 300.00000000 300.00000000 300.00000000 300.00000000 300.00000000 300.00000000 300.00000000 300.00000000 300.00000000 300.00000000 300.00000000 300.00000000 331.49647294 355.35022782 369.90552546 379.65005319 388.53737054 403.16837633 415.12861964 420.93443868 420.93443868 415.12861964 403.16837633 388.53737054 379.65005319 369.90552546 355.35022782 331.49647294 300.00000000 300.00000000 300.00000000 300.00000000 300.00000000 300.00000000 300.00000000 300.00000000 300.00000000 300.00000000 300.00000000 300.00000000 300.00000000 300.00000000 300.00000000 300.00000000 300.00000000 300.00000000 300.00000000 300.00000000 300.00000000 300.00000000 345.83055908 372.12742802 398.95075064 423.55018695 442.30564445 456.22520032 467.53943501 478.30073758 486.80916841 491.27759296 491.27759296 486.80916841 478.30073758 467.53943501 456.22520032 442.30564445 423.55018695 398.95075064 372.12742802 345.83055908 300.00000000 300.00000000 300.00000000 300.00000000 300.00000000 300.00000000 300.00000000 300.00000000 300.00000000 300.00000000 300.00000000 300.00000000 300.00000000 300.00000000 300.00000000 300.00000000 300.00000000 300.00000000 341.75913389 372.72858005 409.98967672 441.20102086 468.42694210 491.87077384 510.50592198 524.74632404 535.77816681 544.58060807 550.95268452 554.28136508 554.28136508 550.95268452 544.58060807 535.77816681 524.74632404 510.50592198 491.87077384 468.42694210 441.20102086 409.98967672 372.72858005 341.75913389 300.00000000 300.00000000 300.00000000 300.00000000 300.00000000 300.00000000 300.00000000 300.00000000 300.00000000 300.00000000 300.00000000 300.00000000 300.00000000 300.00000000 300.00000000 352.16502048 397.70401027 437.28206230 473.90560287 505.04343151 530.85698743 551.84646598 568.24308071 580.65993085 589.96734687 596.86544117 601.56011270 603.95352460 603.95352460 601.56011270 596.86544117 589.96734687 580.65993085 568.24308071 551.84646598 530.85698743 505.04343151 473.90560287 437.28206230 397.70401027 352.16502048 300.00000000 300.00000000 300.00000000 300.00000000 300.00000000 300.00000000 300.00000000 300.00000000 300.00000000 300.00000000 300.00000000 300.00000000 325.04580981 361.72094966 409.78601857 455.74723166 496.29827697 531.02840075 559.40928364 581.87353678 599.25117041 612.35297619 622.01244716 629.02800285 634.00521904 637.25711449 638.87710409 638.87710409 637.25711449 634.00521904 629.02800285 622.01244716 612.35297619 599.25117041 581.87353678 559.40928364 531.02840075 496.29827697 455.74723166 409.78601857 361.72094966 325.04580981 300.00000000 300.00000000 300.00000000 300.00000000 300.00000000 300.00000000 300.00000000 300.00000000 300.00000000 300.00000000 360.35798092 412.86566298 463.26630253 508.55752072 546.87391943 577.86074898 601.91376217 620.00833075 633.31862440 642.92979349 649.76591340 654.56669207 657.85647297 659.94072937 660.95900489 660.95900489 659.94072937 657.85647297 654.56669207 649.76591340 642.92979349 633.31862440 620.00833075 601.91376217 577.86074898 546.87391943 508.55752072 463.26630253 412.86566298 360.35798092 300.00000000 300.00000000 300.00000000 300.00000000 300.00000000 300.00000000 300.00000000 300.00000000 300.00000000 347.74178784 404.19321541 459.36369932 509.70229363 552.59958959 587.00729802 613.26586601 632.50976789 646.19296137 655.72624304 662.28097872 666.75006594 669.77451540 671.77973520 673.01630566 673.61008131 673.61008131 673.01630566 671.77973520 669.77451540 666.75006594 662.28097872 655.72624304 646.19296137 632.50976789 613.26586601 587.00729802 552.59958959 509.70229363 459.36369932 404.19321541 347.74178784 300.00000000 300.00000000 300.00000000 300.00000000 300.00000000 300.00000000 300.00000000 334.02721680 385.18263412 442.71230944 498.27860137 547.00135949 586.50121367 616.47421086 638.01837505 652.86227084 662.78554781 669.29784456 673.53456658 676.28570646 678.07134328 679.21471515 679.90121172 680.22538243 680.22538243 679.90121172 679.21471515 678.07134328 676.28570646 673.53456658 669.29784456 662.78554781 652.86227084 638.01837505 616.47421086 586.50121367 547.00135949 498.27860137 442.71230944 385.18263412 334.02721680 300.00000000 300.00000000 300.00000000 300.00000000 300.00000000 300.00000000 353.16595347 412.01829710 472.18470884 527.70050380 574.34751092 610.41884850 636.37657308 653.97471322 665.36436662 672.50013056 676.88864517 679.57195053 681.21915178 682.23785967 682.86512127 683.23103820 683.40082539 683.40082539 683.23103820 682.86512127 682.23785967 681.21915178 679.57195053 676.88864517 672.50013056 665.36436662 653.97471322 636.37657308 610.41884850 574.34751092 527.70050380 472.18470884 412.01829710 353.16595347 300.00000000 300.00000000 300.00000000 300.00000000 300.00000000 300.00000000 365.33118100 429.71880846 491.88152979 547.13515671 591.97847895 625.36182509 648.36513537 663.20794402 672.29692547 677.65728887 680.75020058 682.52363049 683.54784957 684.14795166 684.50156301 684.70138219 684.79236266 684.79236266 684.70138219 684.50156301 684.14795166 683.54784957 682.52363049 680.75020058 677.65728887 672.29692547 663.20794402 648.36513537 625.36182509 591.97847895 547.13515671 491.88152979 429.71880846 365.33118100 300.00000000 300.00000000 300.00000000 300.00000000 300.00000000 319.49432511 375.23575855 439.31130744 501.85287381 556.76482408 600.55401448 632.47502680 653.93115094 667.37616907 675.33243137 679.84405986 682.33550292 683.69847313 684.44917552 684.86999086 685.10890599 685.24029158 685.29916071 685.29916071 685.24029158 685.10890599 684.86999086 684.44917552 683.69847313 682.33550292 679.84405986 675.33243137 667.37616907 653.93115094 632.47502680 600.55401448 556.76482408 501.85287381 439.31130744 375.23575855 319.49432511 300.00000000 300.00000000 300.00000000 300.00000000 319.49432511 375.23575855 439.31130744 501.85287381 556.76482408 600.55401448 632.47502680 653.93115094 667.37616907 675.33243137 679.84405986 682.33550292 683.69847313 684.44917552 684.86999086 685.10890599 685.24029158 685.29916071 685.29916071 685.24029158 685.10890599 684.86999086 684.44917552 683.69847313 682.33550292 679.84405986 675.33243137 667.37616907 653.93115094 632.47502680 600.55401448 556.76482408 501.85287381 439.31130744 375.23575855 319.49432511 300.00000000 300.00000000 300.00000000 300.00000000 300.00000000 365.33118100 429.71880846 491.88152979 547.13515671 591.97847895 625.36182509 648.36513537 663.20794402 672.29692547 677.65728887 680.75020058 682.52363049 683.54784957 684.14795166 684.50156301 684.70138219 684.79236266 684.79236266 684.70138219 684.50156301 684.14795166 683.54784957 682.52363049 680.75020058 677.65728887 672.29692547 663.20794402 648.36513537 625.36182509 591.97847895 547.13515671 491.88152979 429.71880846 365.33118100 300.00000000 300.00000000 300.00000000 300.00000000 300.00000000 300.00000000 353.16595347 412.01829710 472.18470884 527.70050380 574.34751092 610.41884850 636.37657308 653.97471322 665.36436662 672.50013056 676.88864517 679.57195053 681.21915178 682.23785967 682.86512127 683.23103820 683.40082539 683.40082539 683.23103820 682.86512127 682.23785967 681.21915178 679.57195053 676.88864517 672.50013056 665.36436662 653.97471322 636.37657308 610.41884850 574.34751092 527.70050380 472.18470884 412.01829710 353.16595347 300.00000000 300.00000000 300.00000000 300.00000000 300.00000000 300.00000000 334.02721680 385.18263412 442.71230944 498.27860137 547.00135949 586.50121367 616.47421086 638.01837505 652.86227084 662.78554781 669.29784456 673.53456658 676.28570646 678.07134328 679.21471515 679.90121172 680.22538243 680.22538243 679.90121172 679.21471515 678.07134328 676.28570646 673.53456658 669.29784456 662.78554781 652.86227084 638.01837505 616.47421086 586.50121367 547.00135949 498.27860137 442.71230944 385.18263412 334.02721680 300.00000000 300.00000000 300.00000000 300.00000000 300.00000000 300.00000000 300.00000000 347.74178784 404.19321541 459.36369932 509.70229363 552.59958959 587.00729802 613.26586601 632.50976789 646.19296137 655.72624304 662.28097872 666.75006594 669.77451540 671.77973520 673.01630566 673.61008131 673.61008131 673.01630566 671.77973520 669.77451540 666.75006594 662.28097872 655.72624304 646.19296137 632.50976789 613.26586601 587.00729802 552.59958959 509.70229363 459.36369932 404.19321541 347.74178784 300.00000000 300.00000000 300.00000000 300.00000000 300.00000000 300.00000000 300.00000000 300.00000000 300.00000000 360.35798092 412.86566298 463.26630253 508.55752072 546.87391943 577.86074898 601.91376217 620.00833075 633.31862440 642.92979349 649.76591340 654.56669207 657.85647297 659.94072937 660.95900489 660.95900489 659.94072937 657.85647297 654.56669207 649.76591340 642.92979349 633.31862440 620.00833075 601.91376217 577.86074898 546.87391943 508.55752072 463.26630253 412.86566298 360.35798092 300.00000000 300.00000000 300.00000000 300.00000000 300.00000000 300.00000000 300.00000000 300.00000000 300.00000000 300.00000000 325.04580981 361.72094966 409.78601857 455.74723166 496.29827697 531.02840075 559.40928364 581.87353678 599.25117041 612.35297619 622.01244716 629.02800285 634.00521904 637.25711449 638.87710409 638.87710409 637.25711449 634.00521904 629.02800285 622.01244716 612.35297619 599.25117041 581.87353678 559.40928364 531.02840075 496.29827697 455.74723166 409.78601857 361.72094966 325.04580981 300.00000000 300.00000000 300.00000000 300.00000000 300.00000000 300.00000000 300.00000000 300.00000000 300.00000000 300.00000000 300.00000000 300.00000000 352.16502048 397.70401027 437.28206230 473.90560287 505.04343151 530.85698743 551.84646598 568.24308071 580.65993085 589.96734687 596.86544117 601.56011270 603.95352460 603.95352460 601.56011270 596.86544117 589.96734687 580.65993085 568.24308071 551.84646598 530.85698743 505.04343151 473.90560287 437.28206230 397.70401027 352.16502048 300.00000000 300.00000000 300.00000000 300.00000000 300.00000000 300.00000000 300.00000000 300.00000000 300.00000000 300.00000000 300.00000000 300.00000000 300.00000000 300.00000000 300.00000000 341.75913389 372.72858005 409.98967672 441.20102086 468.42694210 491.87077384 510.50592198 524.74632404 535.77816681 544.58060807 550.95268452 554.28136508 554.28136508 550.95268452 544.58060807 535.77816681 524.74632404 510.50592198 491.87077384 468.42694210 441.20102086 409.98967672 372.72858005 341.75913389 300.00000000 300.00000000 300.00000000 300.00000000 300.00000000 300.00000000 300.00000000 300.00000000 300.00000000 300.00000000 300.00000000 300.00000000 300.00000000 300.00000000 300.00000000 300.00000000 300.00000000 300.00000000 345.83055908 372.12742802 398.95075064 423.55018695 442.30564445 456.22520032 467.53943501 478.30073758 486.80916841 491.27759296 491.27759296 486.80916841 478.30073758 467.53943501 456.22520032 442.30564445 423.55018695 398.95075064 372.12742802 345.83055908 300.00000000 300.00000000 300.00000000 300.00000000 300.00000000 300.00000000 300.00000000 300.00000000 300.00000000 300.00000000 300.00000000 300.00000000 300.00000000 300.00000000 300.00000000 300.00000000 300.00000000 300.00000000 300.00000000 300.00000000 300.00000000 300.00000000 331.49647294 355.35022782 369.90552546 379.65005319 388.53737054 403.16837633 415.12861964 420.93443868 420.93443868 415.12861964 403.16837633 388.53737054 379.65005319 369.90552546 355.35022782 331.49647294 300.00000000 300.00000000 300.00000000 300.00000000 300.00000000 300.00000000 300.00000000 300.00000000 300.00000000 300.00000000 300.00000000 300.00000000 300.00000000 300.00000000 300.00000000 300.00000000 300.00000000 300.00000000 300.00000000 300.00000000 300.00000000 300.00000000 300.00000000 300.00000000 300.00000000 300.00000000 300.00000000 300.00000000 300.00000000 330.70978979 347.44698517 353.63273493 353.63273493 347.44698517 330.70978979 300.00000000 300.00000000 300.00000000 300.00000000 300.00000000 300.00000000 300.00000000 300.00000000 300.00000000 300.00000000 300.00000000 300.00000000 300.00000000 300.00000000 300.00000000 300.00000000 300.00000000 300.00000000 300.00000000 300.00000000 300.00000000 300.00000000 300.00000000 300.00000000 300.00000000 300.00000000 300.00000000 300.00000000 300.00000000 300.00000000 300.00000000 300.00000000 300.00000000 300.00000000 300.00000000 300.00000000 300.00000000 300.00000000 300.00000000 300.00000000 300.00000000 300.00000000 300.00000000 300.00000000 300.00000000 300.00000000 300.00000000 300.00000000 300.00000000 300.00000000 300.00000000 300.00000000 300.00000000 300.00000000 300.00000000 300.00000000 300.00000000 300.00000000 300.00000000 300.00000000 300.00000000 300.00000000 300.00000000 300.00000000 300.00000000 300.00000000 300.00000000 300.00000000 300.00000000 300.00000000 300.00000000 300.00000000 300.00000000 300.00000000 300.00000000 300.00000000 300.00000000 300.00000000 300.00000000 300.00000000 300.00000000 300.00000000 300.00000000 300.00000000 300.00000000 300.00000000 300.00000000 300.00000000 300.00000000 300.00000000 300.00000000 300.00000000 300.00000000 300.00000000 300.00000000 300.00000000 300.00000000 300.00000000 300.00000000 300.00000000 300.00000000 300.00000000 300.00000000 300.00000000 300.00000000 300.00000000 300.00000000 300.00000000 300.00000000 300.00000000 300.00000000 300.00000000 300.00000000 300.00000000 300.00000000 300.00000000 300.00000000 300.00000000 300.00000000 300.00000000 300.00000000 300.00000000 300.00000000 300.00000000 300.00000000 300.00000000 300.00000000 300.00000000 300.00000000 300.00000000 300.00000000 300.00000000 300.00000000 300.00000000 300.00000000 300.00000000 300.00000000 300.00000000 300.00000000 300.00000000 300.00000000 300.00000000 300.00000000 300.00000000 300.00000000 300.00000000 300.00000000 300.00000000 300.00000000 300.00000000 300.00000000 300.00000000 300.00000000 300.00000000 300.00000000 300.00000000 300.00000000 300.00000000 300.00000000 300.00000000 300.00000000 300.00000000 300.00000000 300.00000000 300.00000000 300.00000000 300.00000000 300.00000000 300.00000000 300.00000000 300.00000000 300.00000000 300.00000000 300.00000000 300.00000000 300.00000000 300.00000000 300.00000000 300.00000000 300.00000000 300.00000000 300.00000000 300.00000000 300.00000000 300.00000000 300.00000000 300.00000000 300.00000000 300.00000000 300.00000000 300.00000000 300.00000000 300.00000000 300.00000000 300.00000000 300.00000000 300.00000000 300.00000000 300.00000000 300.00000000 300.00000000 300.00000000 300.00000000 300.00000000 300.00000000 300.00000000 300.00000000 300.00000000 300.00000000 300.00000000 300.00000000 300.00000000 300.00000000 300.00000000 300.00000000 300.00000000 300.00000000 300.00000000 300.00000000 300.00000000 300.00000000 300.00000000 300.00000000 300.00000000 300.00000000 300.00000000 300.00000000 300.00000000 300.00000000 300.00000000 300.00000000 300.00000000 300.00000000 300.00000000 300.00000000 300.00000000 300.00000000 300.00000000 300.00000000 300.00000000 300.00000000 300.00000000 300.00000000 300.00000000 300.00000000 300.00000000 300.00000000 300.00000000 300.00000000 300.00000000 300.00000000 300.00000000 300.00000000 300.00000000 300.00000000 300.00000000 300.00000000 300.00000000 300.00000000 300.00000000 300.00000000 300.00000000 300.00000000 300.00000000 300.00000000 300.00000000 300.00000000 300.00000000 300.00000000 300.00000000 300.00000000 300.00000000 300.00000000 300.00000000 300.00000000 300.00000000 300.00000000 300.00000000 300.00000000 300.00000000 300.00000000 300.00000000 300.00000000 300.00000000 300.00000000 300.00000000 300.00000000 300.00000000 300.00000000 300.00000000 300.00000000 300.00000000 300.00000000 300.00000000 300.00000000 300.00000000 300.00000000 300.00000000 300.00000000 300.00000000 300.00000000 300.00000000 300.00000000 300.00000000 300.00000000 300.00000000 300.00000000 300.00000000 300.00000000 300.00000000 300.00000000 300.00000000 300.00000000 300.00000000 300.00000000 300.00000000 300.00000000 300.00000000 300.00000000 300.00000000 300.00000000 300.00000000 300.00000000 300.00000000 300.00000000 300.00000000 300.00000000 300.00000000 300.00000000 300.00000000 300.00000000 300.00000000 300.00000000 300.00000000 300.00000000 300.00000000 300.00000000 