# vtk DataFile Version 3.0
VTK - Matlab export
ASCII
DATASET STRUCTURED_POINTS
DIMENSIONS 40 40 1
SPACING 1 1 1
ORIGIN 0 0 0
POINT_DATA 1600
SCALARS lambda-2 float 1
LOOKUP_TABLE default
7.22156776 7.22156776 7.22156776 7.22156776 7.22156776 7.22156776 7.22156776 7.22156776 7.22156776 7.22156776 7.22156776 7.22156776 7.22156776 7.22156776 7.22156776 7.22156776 7.22156776 7.22156776 7.22156776 7.22156776 7.22156776 7.22156776 7.22156776 7.22156776 7.22156776 7.22156776 7.22156776 7.22156776 7.22156776 7.22156776 7.22156776 7.22156776 7.22156776 7.22156776 7.22156776 7.22156776 7.22156776 7.22156776 7.22156776 7.22156776 7.22156776 7.22156776 7.22156776 7.22156776 7.22156776 7.22156776 7.22156776 7.22156776 7.22156776 7.22156776 7.22156776 7.22156776 7.22156776 7.22156776 7.22156776 7.22156776 7.22156776 7.22156776 7.22156776 7.22156776 7.22156776 7.22156776 7.22156776 7.22156776 7.22156776 7.22156776 7.22156776 7.22156776 7.22156776 7.22156776 7.22156776 7.22156776 7.22156776 7.22156776 7.22156776 7.22156776 7.22156776 7.22156776 7.22156776 7.22156776 7.22156776 7.22156776 7.22156776 7.22156776 7.22156776 7.22156776 7.22156776 7.22156776 7.22156776 7.22156776 7.22156776 7.22156776 7.22156776 7.22156776 7.22156776 7.22156776 7.22156776 7.22156776 7.22156776 7.22156776 7.22156776 7.22156776 7.22156776 7.22156776 7.22156776 7.22156776 7.22156776 7.22156776 7.22156776 7.22156776 7.22156776 7.22156776 7.22156776 7.22156776 7.22156776 7.22156776 7.22156776 7.22156776 7.22156776 7.22156776 7.22156776 7.22156776 7.22156776 7.22156776 7.22156776 7.22156776 7.22156776 7.22156776 7.22156776 7.22156776 7.22156776 7.22156776 7.22156776 7.22156776 7.22156776 7.22156776 7.22156776 7.22156776 7.22156776 7.22156776 7.22156776 7.22156776 7.22156776 7.22156776 7.22156776 7.22156776 7.22156776 7.22156776 7.22156776 7.22156776 7.22156776 7.22156776 7.22156776 7.22156776 7.22156776 7.22156776 7.22156776 7.22156776 7.22156776 7.22156776 7.22156776 7.22156776 7.22156776 7.22156776 7.22156776 7.22156776 7.22156776 7.22156776 7.22156776 7.22156776 7.22156776 7.22156776 7.22156776 7.22156776 7.22156776 7.22156776 7.22156776 7.22156776 7.22156776 7.22156776 7.22156776 7.22156776 7.22156776 7.22156776 7.22156776 7.22156776 7.22156776 7.22156776 7.22156776 7.22156776 7.22156776 7.22156776 7.22156776 7.22156776 7.22156776 7.22156776 7.22156776 7.22156776 7.22156776 7.22156776 7.22156776 7.22156776 7.22156776 7.22156776 7.22156776 7.22156776 7.22156776 7.22156776 7.22156776 7.22156776 7.22156776 7.22156776 7.22156776 7.22156776 7.22156776 7.22156776 7.22156776 7.22156776 7.22156776 7.22156776 7.22156776 7.22156776 7.22156776 7.22156776 7.22156776 7.22156776 7.22156776 7.22156776 7.22156776 7.22156776 7.22156776 7.22156776 7.22156776 7.22156776 7.22156776 7.22156776 7.22156776 7.22156776 7.22156776 7.22156776 7.22156776 7.22156776 7.22156776 7.22156776 7.22156776 7.22156776 7.22156776 7.22156776 7.22156776 7.22156776 7.22156776 7.22156776 7.22156776 7.22156776 7.22156776 7.22156776 7.22156776 7.22156776 7.22156776 7.22156776 7.22156776 7.22156776 7.22156776 7.22156776 7.22156776 7.22156776 7.22156776 7.22156776 7.22156776 7.22156776 7.22156776 7.22156776 7.22156776 7.22156776 7.22156776 7.22156776 7.22156776 7.22156776 7.22156776 7.22156776 7.22156776 7.22156776 7.22156776 7.22156776 7.22156776 7.22156776 7.22156776 7.22156776 7.22156776 7.22156776 7.22156776 7.22156776 7.22156776 7.22156776 7.22156776 7.22156776 7.22156776 7.22156776 7.22156776 7.22156776 7.22156776 7.22156776 7.22156776 7.22156776 7.22156776 7.22156776 7.22156776 7.22156776 7.22156776 7.22156776 7.22156776 7.22156776 7.22156776 7.22156776 7.22156776 7.22156776 7.22156776 7.22156776 7.22156776 7.22156776 7.22156776 7.22156776 7.22156776 7.22156776 7.22156776 7.22156776 7.22156776 7.22156776 7.22156776 7.22156776 7.22156776 7.22156776 7.22156776 7.22156776 7.22156776 7.22156776 7.22156776 7.21455337 7.21024336 7.20848625 7.20848625 7.21024336 7.21455337 7.22156776 7.22156776 7.22156776 7.22156776 7.22156776 7.22156776 7.22156776 7.22156776 7.22156776 7.22156776 7.22156776 7.22156776 7.22156776 7.22156776 7.22156776 7.22156776 7.22156776 7.22156776 7.22156776 7.22156776 7.22156776 7.22156776 7.22156776 7.22156776 7.22156776 7.22156776 7.22156776 7.22156776 7.22156776 7.21423750 7.20884083 7.20609059 7.20479198 7.20360195 7.20056481 7.19765394 7.19611794 7.19611794 7.19765394 7.20056481 7.20360195 7.20479198 7.20609059 7.20884083 7.21423750 7.22156776 7.22156776 7.22156776 7.22156776 7.22156776 7.22156776 7.22156776 7.22156776 7.22156776 7.22156776 7.22156776 7.22156776 7.22156776 7.22156776 7.22156776 7.22156776 7.22156776 7.22156776 7.22156776 7.22156776 7.22156776 7.22156776 7.21084505 7.20541423 7.20046757 7.19652451 7.19446240 7.19376135 7.19338048 7.19240641 7.19121132 7.19047353 7.19047353 7.19121132 7.19240641 7.19338048 7.19376135 7.19446240 7.19652451 7.20046757 7.20541423 7.21084505 7.22156776 7.22156776 7.22156776 7.22156776 7.22156776 7.22156776 7.22156776 7.22156776 7.22156776 7.22156776 7.22156776 7.22156776 7.22156776 7.22156776 7.22156776 7.22156776 7.22156776 7.22156776 7.21163922 7.20522449 7.19832010 7.19414919 7.19182751 7.19078599 7.19093468 7.19182680 7.19278934 7.19331436 7.19342329 7.19339389 7.19339389 7.19342329 7.19331436 7.19278934 7.19182680 7.19093468 7.19078599 7.19182751 7.19414919 7.19832010 7.20522449 7.21163922 7.22156776 7.22156776 7.22156776 7.22156776 7.22156776 7.22156776 7.22156776 7.22156776 7.22156776 7.22156776 7.22156776 7.22156776 7.22156776 7.22156776 7.22156776 7.20941846 7.20022108 7.19448158 7.19118541 7.19042084 7.19134011 7.19309532 7.19521607 7.19734122 7.19913681 7.20039664 7.20113026 7.20145724 7.20145724 7.20113026 7.20039664 7.19913681 7.19734122 7.19521607 7.19309532 7.19134011 7.19042084 7.19118541 7.19448158 7.20022108 7.20941846 7.22156776 7.22156776 7.22156776 7.22156776 7.22156776 7.22156776 7.22156776 7.22156776 7.22156776 7.22156776 7.22156776 7.22156776 7.21511762 7.20686951 7.19793448 7.19224010 7.19028519 7.19112214 7.19373776 7.19707689 7.20037391 7.20327139 7.20564384 7.20745188 7.20871011 7.20948474 7.20985147 7.20985147 7.20948474 7.20871011 7.20745188 7.20564384 7.20327139 7.20037391 7.19707689 7.19373776 7.19112214 7.19028519 7.19224010 7.19793448 7.20686951 7.21511762 7.22156776 7.22156776 7.22156776 7.22156776 7.22156776 7.22156776 7.22156776 7.22156776 7.22156776 7.22156776 7.20658754 7.19662155 7.19100996 7.18988668 7.19217758 7.19627008 7.20082695 7.20499098 7.20837937 7.21095481 7.21283433 7.21415843 7.21504679 7.21559142 7.21585109 7.21585109 7.21559142 7.21504679 7.21415843 7.21283433 7.21095481 7.20837937 7.20499098 7.20082695 7.19627008 7.19217758 7.18988668 7.19100996 7.19662155 7.20658754 7.22156776 7.22156776 7.22156776 7.22156776 7.22156776 7.22156776 7.22156776 7.22156776 7.22156776 7.20881318 7.19687978 7.19012957 7.18909071 7.19235016 7.19772123 7.20334833 7.20818535 7.21188405 7.21450773 7.21628797 7.21746983 7.21824476 7.21874214 7.21904096 7.21918249 7.21918249 7.21904096 7.21874214 7.21824476 7.21746983 7.21628797 7.21450773 7.21188405 7.20818535 7.20334833 7.19772123 7.19235016 7.18909071 7.19012957 7.19687978 7.20881318 7.22156776 7.22156776 7.22156776 7.22156776 7.22156776 7.22156776 7.22156776 7.21153559 7.19905777 7.19006491 7.18760309 7.19092994 7.19731099 7.20409006 7.20973986 7.21382772 7.21653263 7.21822673 7.21925887 7.21988425 7.22026587 7.22049912 7.22063548 7.22069927 7.22069927 7.22063548 7.22049912 7.22026587 7.21988425 7.21925887 7.21822673 7.21653263 7.21382772 7.20973986 7.20409006 7.19731099 7.19092994 7.18760309 7.19006491 7.19905777 7.21153559 7.22156776 7.22156776 7.22156776 7.22156776 7.22156776 7.22156776 7.20610960 7.19308546 7.18667569 7.18797662 7.19447321 7.20247315 7.20938609 7.21429335 7.21736445 7.21913811 7.22011742 7.22065019 7.22094309 7.22110855 7.22120435 7.22125859 7.22128357 7.22128357 7.22125859 7.22120435 7.22110855 7.22094309 7.22065019 7.22011742 7.21913811 7.21736445 7.21429335 7.20938609 7.20247315 7.19447321 7.18797662 7.18667569 7.19308546 7.20610960 7.22156776 7.22156776 7.22156776 7.22156776 7.22156776 7.22156776 7.20298577 7.18995162 7.18559972 7.18951084 7.19782826 7.20637869 7.21287967 7.21697135 7.21923463 7.22038445 7.22094230 7.22121052 7.22134269 7.22141106 7.22144828 7.22146861 7.22147782 7.22147782 7.22146861 7.22144828 7.22141106 7.22134269 7.22121052 7.22094230 7.22038445 7.21923463 7.21697135 7.21287967 7.20637869 7.19782826 7.18951084 7.18559972 7.18995162 7.20298577 7.22156776 7.22156776 7.22156776 7.22156776 7.22156776 7.21565852 7.20029738 7.18842128 7.18542640 7.19067725 7.19977252 7.20840908 7.21455260 7.21815868 7.22000200 7.22085739 7.22123243 7.22139451 7.22146659 7.22150078 7.22151830 7.22152755 7.22153169 7.22153169 7.22152755 7.22151830 7.22150078 7.22146659 7.22139451 7.22123243 7.22085739 7.22000200 7.21815868 7.21455260 7.20840908 7.19977252 7.19067725 7.18542640 7.18842128 7.20029738 7.21565852 7.22156776 7.22156776 7.22156776 7.22156776 7.21565852 7.20029738 7.18842128 7.18542640 7.19067725 7.19977252 7.20840908 7.21455260 7.21815868 7.22000200 7.22085739 7.22123243 7.22139451 7.22146659 7.22150078 7.22151830 7.22152755 7.22153169 7.22153169 7.22152755 7.22151830 7.22150078 7.22146659 7.22139451 7.22123243 7.22085739 7.22000200 7.21815868 7.21455260 7.20840908 7.19977252 7.19067725 7.18542640 7.18842128 7.20029738 7.21565852 7.22156776 7.22156776 7.22156776 7.22156776 7.22156776 7.20298577 7.18995162 7.18559972 7.18951084 7.19782826 7.20637869 7.21287967 7.21697135 7.21923463 7.22038445 7.22094230 7.22121052 7.22134269 7.22141106 7.22144828 7.22146861 7.22147782 7.22147782 7.22146861 7.22144828 7.22141106 7.22134269 7.22121052 7.22094230 7.22038445 7.21923463 7.21697135 7.21287967 7.20637869 7.19782826 7.18951084 7.18559972 7.18995162 7.20298577 7.22156776 7.22156776 7.22156776 7.22156776 7.22156776 7.22156776 7.20610960 7.19308546 7.18667569 7.18797662 7.19447321 7.20247315 7.20938609 7.21429335 7.21736445 7.21913811 7.22011742 7.22065019 7.22094309 7.22110855 7.22120435 7.22125859 7.22128357 7.22128357 7.22125859 7.22120435 7.22110855 7.22094309 7.22065019 7.22011742 7.21913811 7.21736445 7.21429335 7.20938609 7.20247315 7.19447321 7.18797662 7.18667569 7.19308546 7.20610960 7.22156776 7.22156776 7.22156776 7.22156776 7.22156776 7.22156776 7.21153559 7.19905777 7.19006491 7.18760309 7.19092994 7.19731099 7.20409006 7.20973986 7.21382772 7.21653263 7.21822673 7.21925887 7.21988425 7.22026587 7.22049912 7.22063548 7.22069927 7.22069927 7.22063548 7.22049912 7.22026587 7.21988425 7.21925887 7.21822673 7.21653263 7.21382772 7.20973986 7.20409006 7.19731099 7.19092994 7.18760309 7.19006491 7.19905777 7.21153559 7.22156776 7.22156776 7.22156776 7.22156776 7.22156776 7.22156776 7.22156776 7.20881318 7.19687978 7.19012957 7.18909071 7.19235016 7.19772123 7.20334833 7.20818535 7.21188405 7.21450773 7.21628797 7.21746983 7.21824476 7.21874214 7.21904096 7.21918249 7.21918249 7.21904096 7.21874214 7.21824476 7.21746983 7.21628797 7.21450773 7.21188405 7.20818535 7.20334833 7.19772123 7.19235016 7.18909071 7.19012957 7.19687978 7.20881318 7.22156776 7.22156776 7.22156776 7.22156776 7.22156776 7.22156776 7.22156776 7.22156776 7.22156776 7.20658754 7.19662155 7.19100996 7.18988668 7.19217758 7.19627008 7.20082695 7.20499098 7.20837937 7.21095481 7.21283433 7.21415843 7.21504679 7.21559142 7.21585109 7.21585109 7.21559142 7.21504679 7.21415843 7.21283433 7.21095481 7.20837937 7.20499098 7.20082695 7.19627008 7.19217758 7.18988668 7.19100996 7.19662155 7.20658754 7.22156776 7.22156776 7.22156776 7.22156776 7.22156776 7.22156776 7.22156776 7.22156776 7.22156776 7.22156776 7.21511762 7.20686951 7.19793448 7.19224010 7.19028519 7.19112214 7.19373776 7.19707689 7.20037391 7.20327139 7.20564384 7.20745188 7.20871011 7.20948474 7.20985147 7.20985147 7.20948474 7.20871011 7.20745188 7.20564384 7.20327139 7.20037391 7.19707689 7.19373776 7.19112214 7.19028519 7.19224010 7.19793448 7.20686951 7.21511762 7.22156776 7.22156776 7.22156776 7.22156776 7.22156776 7.22156776 7.22156776 7.22156776 7.22156776 7.22156776 7.22156776 7.22156776 7.20941846 7.20022108 7.19448158 7.19118541 7.19042084 7.19134011 7.19309532 7.19521607 7.19734122 7.19913681 7.20039664 7.20113026 7.20145724 7.20145724 7.20113026 7.20039664 7.19913681 7.19734122 7.19521607 7.19309532 7.19134011 7.19042084 7.19118541 7.19448158 7.20022108 7.20941846 7.22156776 7.22156776 7.22156776 7.22156776 7.22156776 7.22156776 7.22156776 7.22156776 7.22156776 7.22156776 7.22156776 7.22156776 7.22156776 7.22156776 7.22156776 7.21163922 7.20522449 7.19832010 7.19414919 7.19182751 7.19078599 7.19093468 7.19182680 7.19278934 7.19331436 7.19342329 7.19339389 7.19339389 7.19342329 7.19331436 7.19278934 7.19182680 7.19093468 7.19078599 7.19182751 7.19414919 7.19832010 7.20522449 7.21163922 7.22156776 7.22156776 7.22156776 7.22156776 7.22156776 7.22156776 7.22156776 7.22156776 7.22156776 7.22156776 7.22156776 7.22156776 7.22156776 7.22156776 7.22156776 7.22156776 7.22156776 7.22156776 7.21084505 7.20541423 7.20046757 7.19652451 7.19446240 7.19376135 7.19338048 7.19240641 7.19121132 7.19047353 7.19047353 7.19121132 7.19240641 7.19338048 7.19376135 7.19446240 7.19652451 7.20046757 7.20541423 7.21084505 7.22156776 7.22156776 7.22156776 7.22156776 7.22156776 7.22156776 7.22156776 7.22156776 7.22156776 7.22156776 7.22156776 7.22156776 7.22156776 7.22156776 7.22156776 7.22156776 7.22156776 7.22156776 7.22156776 7.22156776 7.22156776 7.22156776 7.21423750 7.20884083 7.20609059 7.20479198 7.20360195 7.20056481 7.19765394 7.19611794 7.19611794 7.19765394 7.20056481 7.20360195 7.20479198 7.20609059 7.20884083 7.21423750 7.22156776 7.22156776 7.22156776 7.22156776 7.22156776 7.22156776 7.22156776 7.22156776 7.22156776 7.22156776 7.22156776 7.22156776 7.22156776 7.22156776 7.22156776 7.22156776 7.22156776 7.22156776 7.22156776 7.22156776 7.22156776 7.22156776 7.22156776 7.22156776 7.22156776 7.22156776 7.22156776 7.22156776 7.22156776 7.21455337 7.21024336 7.20848625 7.20848625 7.21024336 7.21455337 7.22156776 7.22156776 7.22156776 7.22156776 7.22156776 7.22156776 7.22156776 7.22156776 7.22156776 7.22156776 7.22156776 7.22156776 7.22156776 7.22156776 7.22156776 7.22156776 7.22156776 7.22156776 7.22156776 7.22156776 7.22156776 7.22156776 7.22156776 7.22156776 7.22156776 7.22156776 7.22156776 7.22156776 7.22156776 7.22156776 7.22156776 7.22156776 7.22156776 7.22156776 7.22156776 7.22156776 7.22156776 7.22156776 7.22156776 7.22156776 7.22156776 7.22156776 7.22156776 7.22156776 7.22156776 7.22156776 7.22156776 7.22156776 7.22156776 7.22156776 7.22156776 7.22156776 7.22156776 7.22156776 7.22156776 7.22156776 7.22156776 7.22156776 7.22156776 7.22156776 7.22156776 7.22156776 7.22156776 7.22156776 7.22156776 7.22156776 7.22156776 7.22156776 7.22156776 7.22156776 7.22156776 7.22156776 7.22156776 7.22156776 7.22156776 7.22156776 7.22156776 7.22156776 7.22156776 7.22156776 7.22156776 7.22156776 7.22156776 7.22156776 7.22156776 7.22156776 7.22156776 7.22156776 7.22156776 7.22156776 7.22156776 7.22156776 7.22156776 7.22156776 7.22156776 7.22156776 7.22156776 7.22156776 7.22156776 7.22156776 7.22156776 7.22156776 7.22156776 7.22156776 7.22156776 7.22156776 7.22156776 7.22156776 7.22156776 7.22156776 7.22156776 7.22156776 7.22156776 7.22156776 7.22156776 7.22156776 7.22156776 7.22156776 7.22156776 7.22156776 7.22156776 7.22156776 7.22156776 7.22156776 7.22156776 7.22156776 7.22156776 7.22156776 7.22156776 7.22156776 7.22156776 7.22156776 7.22156776 7.22156776 7.22156776 7.22156776 7.22156776 7.22156776 7.22156776 7.22156776 7.22156776 7.22156776 7.22156776 7.22156776 7.22156776 7.22156776 7.22156776 7.22156776 7.22156776 7.22156776 7.22156776 7.22156776 7.22156776 7.22156776 7.22156776 7.22156776 7.22156776 7.22156776 7.22156776 7.22156776 7.22156776 7.22156776 7.22156776 7.22156776 7.22156776 7.22156776 7.22156776 7.22156776 7.22156776 7.22156776 7.22156776 7.22156776 7.22156776 7.22156776 7.22156776 7.22156776 7.22156776 7.22156776 7.22156776 7.22156776 7.22156776 7.22156776 7.22156776 7.22156776 7.22156776 7.22156776 7.22156776 7.22156776 7.22156776 7.22156776 7.22156776 7.22156776 7.22156776 7.22156776 7.22156776 7.22156776 7.22156776 7.22156776 7.22156776 7.22156776 7.22156776 7.22156776 7.22156776 7.22156776 7.22156776 7.22156776 7.22156776 7.22156776 7.22156776 7.22156776 7.22156776 7.22156776 7.22156776 7.22156776 7.22156776 7.22156776 7.22156776 7.22156776 7.22156776 7.22156776 7.22156776 7.22156776 7.22156776 7.22156776 7.22156776 7.22156776 7.22156776 7.22156776 7.22156776 7.22156776 7.22156776 7.22156776 7.22156776 7.22156776 7.22156776 7.22156776 7.22156776 7.22156776 7.22156776 7.22156776 7.22156776 7.22156776 7.22156776 7.22156776 7.22156776 7.22156776 7.22156776 7.22156776 7.22156776 7.22156776 7.22156776 7.22156776 7.22156776 7.22156776 7.22156776 7.22156776 7.22156776 7.22156776 7.22156776 7.22156776 7.22156776 7.22156776 7.22156776 7.22156776 7.22156776 7.22156776 7.22156776 7.22156776 7.22156776 7.22156776 7.22156776 7.22156776 7.22156776 7.22156776 7.22156776 7.22156776 7.22156776 7.22156776 7.22156776 7.22156776 7.22156776 7.22156776 7.22156776 7.22156776 7.22156776 7.22156776 7.22156776 7.22156776 7.22156776 7.22156776 7.22156776 7.22156776 7.22156776 7.22156776 7.22156776 7.22156776 7.22156776 7.22156776 7.22156776 7.22156776 7.22156776 7.22156776 7.22156776 7.22156776 7.22156776 7.22156776 7.22156776 7.22156776 7.22156776 7.22156776 7.22156776 7.22156776 7.22156776 7.22156776 7.22156776 7.22156776 7.22156776 7.22156776 7.22156776 7.22156776 7.22156776 7.22156776 7.22156776 7.22156776 7.22156776 7.22156776 7.22156776 7.22156776 7.22156776 7.22156776 7.22156776 7.22156776 7.22156776 7.22156776 7.22156776 7.22156776 7.22156776 