# vtk DataFile Version 3.0
VTK - Matlab export
ASCII
DATASET STRUCTURED_POINTS
DIMENSIONS 40 40 1
SPACING 1 1 1
ORIGIN 0 0 0
POINT_DATA 1600
SCALARS Temperature float 1
LOOKUP_TABLE default
300.00000000 300.00000000 300.00000000 300.00000000 300.00000000 300.00000000 300.00000000 300.00000000 300.00000000 300.00000000 300.00000000 300.00000000 300.00000000 300.00000000 300.00000000 300.00000000 300.00000000 300.00000000 300.00000000 300.00000000 300.00000000 300.00000000 300.00000000 300.00000000 300.00000000 300.00000000 300.00000000 300.00000000 300.00000000 300.00000000 300.00000000 300.00000000 300.00000000 300.00000000 300.00000000 300.00000000 300.00000000 300.00000000 300.00000000 300.00000000 300.00000000 300.00000000 300.00000000 300.00000000 300.00000000 300.00000000 300.00000000 300.00000000 300.00000000 300.00000000 300.00000000 300.00000000 300.00000000 300.00000000 300.00000000 300.00000000 300.00000000 300.00000000 300.00000000 300.00000000 300.00000000 300.00000000 300.00000000 300.00000000 300.00000000 300.00000000 300.00000000 300.00000000 300.00000000 300.00000000 300.00000000 300.00000000 300.00000000 300.00000000 300.00000000 300.00000000 300.00000000 300.00000000 300.00000000 300.00000000 300.00000000 300.00000000 300.00000000 300.00000000 300.00000000 300.00000000 300.00000000 300.00000000 300.00000000 300.00000000 300.00000000 300.00000000 300.00000000 300.00000000 300.00000000 300.00000000 300.00000000 300.00000000 300.00000000 300.00000000 300.00000000 300.00000000 300.00000000 300.00000000 300.00000000 300.00000000 300.00000000 300.00000000 300.00000000 300.00000000 300.00000000 300.00000000 300.00000000 300.00000000 300.00000000 300.00000000 300.00000000 300.00000000 300.00000000 300.00000000 300.00000000 300.00000000 300.00000000 300.00000000 300.00000000 300.00000000 300.00000000 300.00000000 300.00000000 300.00000000 300.00000000 300.00000000 300.00000000 300.00000000 300.00000000 300.00000000 300.00000000 300.00000000 300.00000000 300.00000000 300.00000000 300.00000000 300.00000000 300.00000000 300.00000000 300.00000000 300.00000000 300.00000000 300.00000000 300.00000000 300.00000000 300.00000000 300.00000000 300.00000000 300.00000000 300.00000000 300.00000000 300.00000000 300.00000000 300.00000000 300.00000000 300.00000000 300.00000000 300.00000000 300.00000000 300.00000000 300.00000000 300.00000000 300.00000000 300.00000000 300.00000000 300.00000000 300.00000000 300.00000000 300.00000000 300.00000000 300.00000000 300.00000000 300.00000000 300.00000000 300.00000000 300.00000000 300.00000000 300.00000000 300.00000000 300.00000000 300.00000000 300.00000000 300.00000000 300.00000000 300.00000000 300.00000000 300.00000000 300.00000000 300.00000000 300.00000000 300.00000000 300.00000000 300.00000000 300.00000000 300.00000000 300.00000000 300.00000000 300.00000000 300.00000000 300.00000000 300.00000000 300.00000000 300.00000000 300.00000000 300.00000000 300.00000000 300.00000000 300.00000000 300.00000000 300.00000000 300.00000000 300.00000000 300.00000000 300.00000000 300.00000000 300.00000000 300.00000000 300.00000000 300.00000000 300.00000000 300.00000000 300.00000000 300.00000000 300.00000000 300.00000000 300.00000000 300.00000000 300.00000000 300.00000000 300.00000000 300.00000000 300.00000000 300.00000000 300.00000000 300.00000000 300.00000000 300.00000000 300.00000000 300.00000000 300.00000000 300.00000000 300.00000000 300.00000000 300.00000000 300.00000000 300.00000000 300.00000000 300.00000000 300.00000000 300.00000000 300.00000000 300.00000000 300.00000000 300.00000000 300.00000000 300.00000000 300.00000000 300.00000000 300.00000000 300.00000000 300.00000000 300.00000000 300.00000000 300.00000000 300.00000000 300.00000000 300.00000000 300.00000000 300.00000000 300.00000000 300.00000000 300.00000000 300.00000000 300.00000000 300.00000000 300.00000000 300.00000000 300.00000000 300.00000000 300.00000000 300.00000000 300.00000000 300.00000000 300.00000000 300.00000000 300.00000000 300.00000000 300.00000000 300.00000000 300.00000000 300.00000000 300.00000000 300.00000000 300.00000000 300.00000000 300.00000000 300.00000000 300.00000000 300.00000000 300.00000000 300.00000000 300.00000000 300.00000000 300.00000000 300.00000000 300.00000000 300.00000000 300.00000000 300.00000000 300.00000000 300.00000000 300.00000000 300.00000000 300.00000000 300.00000000 300.00000000 300.00000000 300.00000000 300.00000000 300.00000000 300.00000000 300.00000000 300.00000000 300.00000000 300.00000000 300.00000000 300.00000000 300.00000000 300.00000000 300.00000000 300.00000000 328.51237468 343.99974923 349.70868761 349.70868761 343.99974923 328.51237468 300.00000000 300.00000000 300.00000000 300.00000000 300.00000000 300.00000000 300.00000000 300.00000000 300.00000000 300.00000000 300.00000000 300.00000000 300.00000000 300.00000000 300.00000000 300.00000000 300.00000000 300.00000000 300.00000000 300.00000000 300.00000000 300.00000000 300.00000000 300.00000000 300.00000000 300.00000000 300.00000000 300.00000000 300.00000000 329.17855722 351.31191825 364.89976113 374.07502620 382.44860015 396.08862111 407.19220714 412.57178358 412.57178358 407.19220714 396.08862111 382.44860015 374.07502620 364.89976113 351.31191825 329.17855722 300.00000000 300.00000000 300.00000000 300.00000000 300.00000000 300.00000000 300.00000000 300.00000000 300.00000000 300.00000000 300.00000000 300.00000000 300.00000000 300.00000000 300.00000000 300.00000000 300.00000000 300.00000000 300.00000000 300.00000000 300.00000000 300.00000000 342.40684100 366.85261456 391.88920545 414.95682898 432.69858436 445.99996501 456.85309346 467.09705373 475.14325868 479.35672402 479.35672402 475.14325868 467.09705373 456.85309346 445.99996501 432.69858436 414.95682898 391.88920545 366.85261456 342.40684100 300.00000000 300.00000000 300.00000000 300.00000000 300.00000000 300.00000000 300.00000000 300.00000000 300.00000000 300.00000000 300.00000000 300.00000000 300.00000000 300.00000000 300.00000000 300.00000000 300.00000000 300.00000000 338.56867693 367.32515885 402.06163983 431.41711735 457.26135788 479.71678873 497.77275162 511.73884214 522.63458378 531.30701489 537.54807077 540.79600750 540.79600750 537.54807077 531.30701489 522.63458378 511.73884214 497.77275162 479.71678873 457.26135788 431.41711735 402.06163983 367.32515885 338.56867693 300.00000000 300.00000000 300.00000000 300.00000000 300.00000000 300.00000000 300.00000000 300.00000000 300.00000000 300.00000000 300.00000000 300.00000000 300.00000000 300.00000000 300.00000000 348.15263845 390.43153487 427.54425279 462.24778621 492.15208303 517.30332569 538.04776745 554.50002149 567.14449082 576.72054454 583.83387585 588.66020507 591.11267180 591.11267180 588.66020507 583.83387585 576.72054454 567.14449082 554.50002149 538.04776745 517.30332569 492.15208303 462.24778621 427.54425279 390.43153487 348.15263845 300.00000000 300.00000000 300.00000000 300.00000000 300.00000000 300.00000000 300.00000000 300.00000000 300.00000000 300.00000000 300.00000000 300.00000000 322.98564052 356.83489039 401.51295245 444.72734721 483.44014012 517.16454627 545.25422704 567.93758614 585.83515928 599.59420514 609.92318385 617.52765282 622.95668309 626.50431198 628.26830874 628.26830874 626.50431198 622.95668309 617.52765282 609.92318385 599.59420514 585.83515928 567.93758614 545.25422704 517.16454627 483.44014012 444.72734721 401.51295245 356.83489039 322.98564052 300.00000000 300.00000000 300.00000000 300.00000000 300.00000000 300.00000000 300.00000000 300.00000000 300.00000000 300.00000000 355.40896380 404.08513169 451.48820147 494.87795298 532.39735793 563.47798971 588.22940863 607.34256677 621.76562181 632.43587723 640.19270727 645.73321256 649.56717138 652.00378955 653.19395221 653.19395221 652.00378955 649.56717138 645.73321256 640.19270727 632.43587723 621.76562181 607.34256677 588.22940863 563.47798971 532.39735793 494.87795298 451.48820147 404.08513169 355.40896380 300.00000000 300.00000000 300.00000000 300.00000000 300.00000000 300.00000000 300.00000000 300.00000000 300.00000000 343.63749021 395.68767088 447.33822662 495.46806120 537.55727152 572.32881408 599.72392485 620.47467056 635.72408226 646.69106975 654.45715267 659.89155162 663.64519174 666.16628559 667.72995323 668.48183177 668.48183177 667.72995323 666.16628559 663.64519174 659.89155162 654.45715267 646.69106975 635.72408226 620.47467056 599.72392485 572.32881408 537.55727152 495.46806120 447.33822662 395.68767088 343.63749021 300.00000000 300.00000000 300.00000000 300.00000000 300.00000000 300.00000000 300.00000000 330.95299506 377.81486553 431.22773284 483.90132748 531.38846849 571.20317215 602.58377528 626.07347876 642.94432228 654.69435431 662.71166441 668.11650146 671.73613254 674.14314917 675.70932135 676.65734667 677.10627993 677.10627993 676.65734667 675.70932135 674.14314917 671.73613254 668.11650146 662.71166441 654.69435431 642.94432228 626.07347876 602.58377528 571.20317215 531.38846849 483.90132748 431.22773284 377.81486553 330.95299506 300.00000000 300.00000000 300.00000000 300.00000000 300.00000000 300.00000000 348.35317324 402.37698938 458.60640959 511.87629468 558.20423857 595.54228574 623.69482775 643.75903765 657.42821967 666.43692031 672.24986131 675.96239110 678.32803295 679.83432761 680.78015454 681.33773181 681.59752398 681.59752398 681.33773181 680.78015454 679.83432761 678.32803295 675.96239110 672.24986131 666.43692031 657.42821967 643.75903765 623.69482775 595.54228574 558.20423857 511.87629468 458.60640959 402.37698938 348.35317324 300.00000000 300.00000000 300.00000000 300.00000000 300.00000000 300.00000000 359.42797600 418.64101221 477.03659553 530.56802443 575.78365898 611.09803816 636.79213649 654.37668260 665.82504345 673.00465440 677.39960021 680.05998787 681.66981351 682.64812700 683.23906555 683.57758148 683.73258776 683.73258776 683.57758148 683.23906555 682.64812700 681.66981351 680.05998787 677.39960021 673.00465440 665.82504345 654.37668260 636.79213649 611.09803816 575.78365898 530.56802443 477.03659553 418.64101221 359.42797600 300.00000000 300.00000000 300.00000000 300.00000000 300.00000000 317.68451882 368.42640255 427.46644890 486.41114733 539.90495407 584.43597535 618.62351475 643.00248239 659.29920369 669.62390285 675.90064497 679.61223208 681.77713910 683.03865963 683.77842681 684.21177130 684.45433732 684.56385379 684.56385379 684.45433732 684.21177130 683.77842681 683.03865963 681.77713910 679.61223208 675.90064497 669.62390285 659.29920369 643.00248239 618.62351475 584.43597535 539.90495407 486.41114733 427.46644890 368.42640255 317.68451882 300.00000000 300.00000000 300.00000000 300.00000000 317.68451882 368.42640255 427.46644890 486.41114733 539.90495407 584.43597535 618.62351475 643.00248239 659.29920369 669.62390285 675.90064497 679.61223208 681.77713910 683.03865963 683.77842681 684.21177130 684.45433732 684.56385379 684.56385379 684.45433732 684.21177130 683.77842681 683.03865963 681.77713910 679.61223208 675.90064497 669.62390285 659.29920369 643.00248239 618.62351475 584.43597535 539.90495407 486.41114733 427.46644890 368.42640255 317.68451882 300.00000000 300.00000000 300.00000000 300.00000000 300.00000000 359.42797600 418.64101221 477.03659553 530.56802443 575.78365898 611.09803816 636.79213649 654.37668260 665.82504345 673.00465440 677.39960021 680.05998787 681.66981351 682.64812700 683.23906555 683.57758148 683.73258776 683.73258776 683.57758148 683.23906555 682.64812700 681.66981351 680.05998787 677.39960021 673.00465440 665.82504345 654.37668260 636.79213649 611.09803816 575.78365898 530.56802443 477.03659553 418.64101221 359.42797600 300.00000000 300.00000000 300.00000000 300.00000000 300.00000000 300.00000000 348.35317324 402.37698938 458.60640959 511.87629468 558.20423857 595.54228574 623.69482775 643.75903765 657.42821967 666.43692031 672.24986131 675.96239110 678.32803295 679.83432761 680.78015454 681.33773181 681.59752398 681.59752398 681.33773181 680.78015454 679.83432761 678.32803295 675.96239110 672.24986131 666.43692031 657.42821967 643.75903765 623.69482775 595.54228574 558.20423857 511.87629468 458.60640959 402.37698938 348.35317324 300.00000000 300.00000000 300.00000000 300.00000000 300.00000000 300.00000000 330.95299506 377.81486553 431.22773284 483.90132748 531.38846849 571.20317215 602.58377528 626.07347876 642.94432228 654.69435431 662.71166441 668.11650146 671.73613254 674.14314917 675.70932135 676.65734667 677.10627993 677.10627993 676.65734667 675.70932135 674.14314917 671.73613254 668.11650146 662.71166441 654.69435431 642.94432228 626.07347876 602.58377528 571.20317215 531.38846849 483.90132748 431.22773284 377.81486553 330.95299506 300.00000000 300.00000000 300.00000000 300.00000000 300.00000000 300.00000000 300.00000000 343.63749021 395.68767088 447.33822662 495.46806120 537.55727152 572.32881408 599.72392485 620.47467056 635.72408226 646.69106975 654.45715267 659.89155162 663.64519174 666.16628559 667.72995323 668.48183177 668.48183177 667.72995323 666.16628559 663.64519174 659.89155162 654.45715267 646.69106975 635.72408226 620.47467056 599.72392485 572.32881408 537.55727152 495.46806120 447.33822662 395.68767088 343.63749021 300.00000000 300.00000000 300.00000000 300.00000000 300.00000000 300.00000000 300.00000000 300.00000000 300.00000000 355.40896380 404.08513169 451.48820147 494.87795298 532.39735793 563.47798971 588.22940863 607.34256677 621.76562181 632.43587723 640.19270727 645.73321256 649.56717138 652.00378955 653.19395221 653.19395221 652.00378955 649.56717138 645.73321256 640.19270727 632.43587723 621.76562181 607.34256677 588.22940863 563.47798971 532.39735793 494.87795298 451.48820147 404.08513169 355.40896380 300.00000000 300.00000000 300.00000000 300.00000000 300.00000000 300.00000000 300.00000000 300.00000000 300.00000000 300.00000000 322.98564052 356.83489039 401.51295245 444.72734721 483.44014012 517.16454627 545.25422704 567.93758614 585.83515928 599.59420514 609.92318385 617.52765282 622.95668309 626.50431198 628.26830874 628.26830874 626.50431198 622.95668309 617.52765282 609.92318385 599.59420514 585.83515928 567.93758614 545.25422704 517.16454627 483.44014012 444.72734721 401.51295245 356.83489039 322.98564052 300.00000000 300.00000000 300.00000000 300.00000000 300.00000000 300.00000000 300.00000000 300.00000000 300.00000000 300.00000000 300.00000000 300.00000000 348.15263845 390.43153487 427.54425279 462.24778621 492.15208303 517.30332569 538.04776745 554.50002149 567.14449082 576.72054454 583.83387585 588.66020507 591.11267180 591.11267180 588.66020507 583.83387585 576.72054454 567.14449082 554.50002149 538.04776745 517.30332569 492.15208303 462.24778621 427.54425279 390.43153487 348.15263845 300.00000000 300.00000000 300.00000000 300.00000000 300.00000000 300.00000000 300.00000000 300.00000000 300.00000000 300.00000000 300.00000000 300.00000000 300.00000000 300.00000000 300.00000000 338.56867693 367.32515885 402.06163983 431.41711735 457.26135788 479.71678873 497.77275162 511.73884214 522.63458378 531.30701489 537.54807077 540.79600750 540.79600750 537.54807077 531.30701489 522.63458378 511.73884214 497.77275162 479.71678873 457.26135788 431.41711735 402.06163983 367.32515885 338.56867693 300.00000000 300.00000000 300.00000000 300.00000000 300.00000000 300.00000000 300.00000000 300.00000000 300.00000000 300.00000000 300.00000000 300.00000000 300.00000000 300.00000000 300.00000000 300.00000000 300.00000000 300.00000000 342.40684100 366.85261456 391.88920545 414.95682898 432.69858436 445.99996501 456.85309346 467.09705373 475.14325868 479.35672402 479.35672402 475.14325868 467.09705373 456.85309346 445.99996501 432.69858436 414.95682898 391.88920545 366.85261456 342.40684100 300.00000000 300.00000000 300.00000000 300.00000000 300.00000000 300.00000000 300.00000000 300.00000000 300.00000000 300.00000000 300.00000000 300.00000000 300.00000000 300.00000000 300.00000000 300.00000000 300.00000000 300.00000000 300.00000000 300.00000000 300.00000000 300.00000000 329.17855722 351.31191825 364.89976113 374.07502620 382.44860015 396.08862111 407.19220714 412.57178358 412.57178358 407.19220714 396.08862111 382.44860015 374.07502620 364.89976113 351.31191825 329.17855722 300.00000000 300.00000000 300.00000000 300.00000000 300.00000000 300.00000000 300.00000000 300.00000000 300.00000000 300.00000000 300.00000000 300.00000000 300.00000000 300.00000000 300.00000000 300.00000000 300.00000000 300.00000000 300.00000000 300.00000000 300.00000000 300.00000000 300.00000000 300.00000000 300.00000000 300.00000000 300.00000000 300.00000000 300.00000000 328.51237468 343.99974923 349.70868761 349.70868761 343.99974923 328.51237468 300.00000000 300.00000000 300.00000000 300.00000000 300.00000000 300.00000000 300.00000000 300.00000000 300.00000000 300.00000000 300.00000000 300.00000000 300.00000000 300.00000000 300.00000000 300.00000000 300.00000000 300.00000000 300.00000000 300.00000000 300.00000000 300.00000000 300.00000000 300.00000000 300.00000000 300.00000000 300.00000000 300.00000000 300.00000000 300.00000000 300.00000000 300.00000000 300.00000000 300.00000000 300.00000000 300.00000000 300.00000000 300.00000000 300.00000000 300.00000000 300.00000000 300.00000000 300.00000000 300.00000000 300.00000000 300.00000000 300.00000000 300.00000000 300.00000000 300.00000000 300.00000000 300.00000000 300.00000000 300.00000000 300.00000000 300.00000000 300.00000000 300.00000000 300.00000000 300.00000000 300.00000000 300.00000000 300.00000000 300.00000000 300.00000000 300.00000000 300.00000000 300.00000000 300.00000000 300.00000000 300.00000000 300.00000000 300.00000000 300.00000000 300.00000000 300.00000000 300.00000000 300.00000000 300.00000000 300.00000000 300.00000000 300.00000000 300.00000000 300.00000000 300.00000000 300.00000000 300.00000000 300.00000000 300.00000000 300.00000000 300.00000000 300.00000000 300.00000000 300.00000000 300.00000000 300.00000000 300.00000000 300.00000000 300.00000000 300.00000000 300.00000000 300.00000000 300.00000000 300.00000000 300.00000000 300.00000000 300.00000000 300.00000000 300.00000000 300.00000000 300.00000000 300.00000000 300.00000000 300.00000000 300.00000000 300.00000000 300.00000000 300.00000000 300.00000000 300.00000000 300.00000000 300.00000000 300.00000000 300.00000000 300.00000000 300.00000000 300.00000000 300.00000000 300.00000000 300.00000000 300.00000000 300.00000000 300.00000000 300.00000000 300.00000000 300.00000000 300.00000000 300.00000000 300.00000000 300.00000000 300.00000000 300.00000000 300.00000000 300.00000000 300.00000000 300.00000000 300.00000000 300.00000000 300.00000000 300.00000000 300.00000000 300.00000000 300.00000000 300.00000000 300.00000000 300.00000000 300.00000000 300.00000000 300.00000000 300.00000000 300.00000000 300.00000000 300.00000000 300.00000000 300.00000000 300.00000000 300.00000000 300.00000000 300.00000000 300.00000000 300.00000000 300.00000000 300.00000000 300.00000000 300.00000000 300.00000000 300.00000000 300.00000000 300.00000000 300.00000000 300.00000000 300.00000000 300.00000000 300.00000000 300.00000000 300.00000000 300.00000000 300.00000000 300.00000000 300.00000000 300.00000000 300.00000000 300.00000000 300.00000000 300.00000000 300.00000000 300.00000000 300.00000000 300.00000000 300.00000000 300.00000000 300.00000000 300.00000000 300.00000000 300.00000000 300.00000000 300.00000000 300.00000000 300.00000000 300.00000000 300.00000000 300.00000000 300.00000000 300.00000000 300.00000000 300.00000000 300.00000000 300.00000000 300.00000000 300.00000000 300.00000000 300.00000000 300.00000000 300.00000000 300.00000000 300.00000000 300.00000000 300.00000000 300.00000000 300.00000000 300.00000000 300.00000000 300.00000000 300.00000000 300.00000000 300.00000000 300.00000000 300.00000000 300.00000000 300.00000000 300.00000000 300.00000000 300.00000000 300.00000000 300.00000000 300.00000000 300.00000000 300.00000000 300.00000000 300.00000000 300.00000000 300.00000000 300.00000000 300.00000000 300.00000000 300.00000000 300.00000000 300.00000000 300.00000000 300.00000000 300.00000000 300.00000000 300.00000000 300.00000000 300.00000000 300.00000000 300.00000000 300.00000000 300.00000000 300.00000000 300.00000000 300.00000000 300.00000000 300.00000000 300.00000000 300.00000000 300.00000000 300.00000000 300.00000000 300.00000000 300.00000000 300.00000000 300.00000000 300.00000000 300.00000000 300.00000000 300.00000000 300.00000000 300.00000000 300.00000000 300.00000000 300.00000000 300.00000000 300.00000000 300.00000000 300.00000000 300.00000000 300.00000000 300.00000000 300.00000000 300.00000000 300.00000000 300.00000000 300.00000000 300.00000000 300.00000000 300.00000000 300.00000000 300.00000000 300.00000000 300.00000000 300.00000000 300.00000000 300.00000000 300.00000000 300.00000000 300.00000000 300.00000000 300.00000000 300.00000000 300.00000000 300.00000000 300.00000000 300.00000000 300.00000000 300.00000000 300.00000000 300.00000000 300.00000000 300.00000000 300.00000000 300.00000000 300.00000000 300.00000000 300.00000000 300.00000000 300.00000000 