# vtk DataFile Version 3.0
VTK - Matlab export
ASCII
DATASET STRUCTURED_POINTS
DIMENSIONS 40 40 1
SPACING 1 1 1
ORIGIN 0 0 0
POINT_DATA 1600
SCALARS Temperature float 1
LOOKUP_TABLE default
300.00000000 300.00000000 300.00000000 300.00000000 300.00000000 300.00000000 300.00000000 300.00000000 300.00000000 300.00000000 300.00000000 300.00000000 300.00000000 300.00000000 300.00000000 300.00000000 300.00000000 300.00000000 300.00000000 300.00000000 300.00000000 300.00000000 300.00000000 300.00000000 300.00000000 300.00000000 300.00000000 300.00000000 300.00000000 300.00000000 300.00000000 300.00000000 300.00000000 300.00000000 300.00000000 300.00000000 300.00000000 300.00000000 300.00000000 300.00000000 300.00000000 300.00000000 300.00000000 300.00000000 300.00000000 300.00000000 300.00000000 300.00000000 300.00000000 300.00000000 300.00000000 300.00000000 300.00000000 300.00000000 300.00000000 300.00000000 300.00000000 300.00000000 300.00000000 300.00000000 300.00000000 300.00000000 300.00000000 300.00000000 300.00000000 300.00000000 300.00000000 300.00000000 300.00000000 300.00000000 300.00000000 300.00000000 300.00000000 300.00000000 300.00000000 300.00000000 300.00000000 300.00000000 300.00000000 300.00000000 300.00000000 300.00000000 300.00000000 300.00000000 300.00000000 300.00000000 300.00000000 300.00000000 300.00000000 300.00000000 300.00000000 300.00000000 300.00000000 300.00000000 300.00000000 300.00000000 300.00000000 300.00000000 300.00000000 300.00000000 300.00000000 300.00000000 300.00000000 300.00000000 300.00000000 300.00000000 300.00000000 300.00000000 300.00000000 300.00000000 300.00000000 300.00000000 300.00000000 300.00000000 300.00000000 300.00000000 300.00000000 300.00000000 300.00000000 300.00000000 300.00000000 300.00000000 300.00000000 300.00000000 300.00000000 300.00000000 300.00000000 300.00000000 300.00000000 300.00000000 300.00000000 300.00000000 300.00000000 300.00000000 300.00000000 300.00000000 300.00000000 300.00000000 300.00000000 300.00000000 300.00000000 300.00000000 300.00000000 300.00000000 300.00000000 300.00000000 300.00000000 300.00000000 300.00000000 300.00000000 300.00000000 300.00000000 300.00000000 300.00000000 300.00000000 300.00000000 300.00000000 300.00000000 300.00000000 300.00000000 300.00000000 300.00000000 300.00000000 300.00000000 300.00000000 300.00000000 300.00000000 300.00000000 300.00000000 300.00000000 300.00000000 300.00000000 300.00000000 300.00000000 300.00000000 300.00000000 300.00000000 300.00000000 300.00000000 300.00000000 300.00000000 300.00000000 300.00000000 300.00000000 300.00000000 300.00000000 300.00000000 300.00000000 300.00000000 300.00000000 300.00000000 300.00000000 300.00000000 300.00000000 300.00000000 300.00000000 300.00000000 300.00000000 300.00000000 300.00000000 300.00000000 300.00000000 300.00000000 300.00000000 300.00000000 300.00000000 300.00000000 300.00000000 300.00000000 300.00000000 300.00000000 300.00000000 300.00000000 300.00000000 300.00000000 300.00000000 300.00000000 300.00000000 300.00000000 300.00000000 300.00000000 300.00000000 300.00000000 300.00000000 300.00000000 300.00000000 300.00000000 300.00000000 300.00000000 300.00000000 300.00000000 300.00000000 300.00000000 300.00000000 300.00000000 300.00000000 300.00000000 300.00000000 300.00000000 300.00000000 300.00000000 300.00000000 300.00000000 300.00000000 300.00000000 300.00000000 300.00000000 300.00000000 300.00000000 300.00000000 300.00000000 300.00000000 300.00000000 300.00000000 300.00000000 300.00000000 300.00000000 300.00000000 300.00000000 300.00000000 300.00000000 300.00000000 300.00000000 300.00000000 300.00000000 300.00000000 300.00000000 300.00000000 300.00000000 300.00000000 300.00000000 300.00000000 300.00000000 300.00000000 300.00000000 300.00000000 300.00000000 300.00000000 300.00000000 300.00000000 300.00000000 300.00000000 300.00000000 300.00000000 300.00000000 300.00000000 300.00000000 300.00000000 300.00000000 300.00000000 300.00000000 300.00000000 300.00000000 300.00000000 300.00000000 300.00000000 300.00000000 300.00000000 300.00000000 300.00000000 300.00000000 300.00000000 300.00000000 300.00000000 300.00000000 300.00000000 300.00000000 300.00000000 300.00000000 300.00000000 300.00000000 300.00000000 300.00000000 300.00000000 300.00000000 300.00000000 300.00000000 300.00000000 300.00000000 300.00000000 300.00000000 300.00000000 300.00000000 300.00000000 300.00000000 300.00000000 300.00000000 300.00000000 300.00000000 300.00000000 300.00000000 300.00000000 300.00000000 300.00000000 300.00000000 300.00000000 300.00000000 380.85504711 431.12176984 450.99588980 450.99588980 431.12176984 380.85504711 300.00000000 300.00000000 300.00000000 300.00000000 300.00000000 300.00000000 300.00000000 300.00000000 300.00000000 300.00000000 300.00000000 300.00000000 300.00000000 300.00000000 300.00000000 300.00000000 300.00000000 300.00000000 300.00000000 300.00000000 300.00000000 300.00000000 300.00000000 300.00000000 300.00000000 300.00000000 300.00000000 300.00000000 300.00000000 382.97877360 444.70431707 475.26966181 489.03219051 502.22540314 536.93084436 568.92134725 584.25192552 584.25192552 568.92134725 536.93084436 502.22540314 489.03219051 475.26966181 444.70431707 382.97877360 300.00000000 300.00000000 300.00000000 300.00000000 300.00000000 300.00000000 300.00000000 300.00000000 300.00000000 300.00000000 300.00000000 300.00000000 300.00000000 300.00000000 300.00000000 300.00000000 300.00000000 300.00000000 300.00000000 300.00000000 300.00000000 300.00000000 420.01047333 479.55940527 534.14915924 578.91126833 603.38938942 614.18341069 622.31417162 635.81858703 648.88381592 655.42381138 655.42381138 648.88381592 635.81858703 622.31417162 614.18341069 603.38938942 578.91126833 534.14915924 479.55940527 420.01047333 300.00000000 300.00000000 300.00000000 300.00000000 300.00000000 300.00000000 300.00000000 300.00000000 300.00000000 300.00000000 300.00000000 300.00000000 300.00000000 300.00000000 300.00000000 300.00000000 300.00000000 300.00000000 411.09632716 480.87928431 556.37155051 602.55245918 632.28000954 652.59129780 663.10352275 667.35598753 670.08968970 673.98021169 677.69001776 679.51899037 679.51899037 677.69001776 673.98021169 670.08968970 667.35598753 663.10352275 652.59129780 632.28000954 602.55245918 556.37155051 480.87928431 411.09632716 300.00000000 300.00000000 300.00000000 300.00000000 300.00000000 300.00000000 300.00000000 300.00000000 300.00000000 300.00000000 300.00000000 300.00000000 300.00000000 300.00000000 300.00000000 433.70632553 535.00194265 597.94012694 639.44840808 661.27941152 672.34615421 678.56368702 681.46043158 682.49889795 683.09049492 683.90404905 684.66198225 685.01800122 685.01800122 684.66198225 683.90404905 683.09049492 682.49889795 681.46043158 678.56368702 672.34615421 661.27941152 639.44840808 597.94012694 535.00194265 433.70632553 300.00000000 300.00000000 300.00000000 300.00000000 300.00000000 300.00000000 300.00000000 300.00000000 300.00000000 300.00000000 300.00000000 300.00000000 371.09840335 460.10333402 556.77076947 622.42281113 656.87602838 673.59638892 680.63868719 683.48279896 684.80705721 685.35125976 685.51913287 685.60607796 685.73124883 685.84463724 685.89377487 685.89377487 685.84463724 685.73124883 685.60607796 685.51913287 685.35125976 684.80705721 683.48279896 680.63868719 673.59638892 656.87602838 622.42281113 556.77076947 460.10333402 371.09840335 300.00000000 300.00000000 300.00000000 300.00000000 300.00000000 300.00000000 300.00000000 300.00000000 300.00000000 300.00000000 460.05200362 566.07709093 631.89515137 665.08415631 678.61621585 683.54197113 685.15176723 685.66393134 685.86249429 685.93346939 685.95161848 685.96042716 685.97474225 685.98718185 685.99194496 685.99194496 685.98718185 685.97474225 685.96042716 685.95161848 685.93346939 685.86249429 685.66393134 685.15176723 683.54197113 678.61621585 665.08415631 631.89515137 566.07709093 460.05200362 300.00000000 300.00000000 300.00000000 300.00000000 300.00000000 300.00000000 300.00000000 300.00000000 300.00000000 432.94951770 556.39160592 631.79596151 667.20892759 680.49604728 684.55508364 685.63941824 685.90351585 685.96793396 685.98881002 685.99518849 685.99646205 685.99707438 685.99829246 685.99927757 685.99958897 685.99958897 685.99927757 685.99829246 685.99707438 685.99646205 685.99518849 685.98881002 685.96793396 685.90351585 685.63941824 684.55508364 680.49604728 667.20892759 631.79596151 556.39160592 432.94951770 300.00000000 300.00000000 300.00000000 300.00000000 300.00000000 300.00000000 300.00000000 405.74330086 530.98580375 620.88216835 664.70994752 680.43572552 684.80958396 685.77945664 685.96131977 685.99232751 685.99786799 685.99938131 685.99976277 685.99981575 685.99984442 685.99992051 685.99997450 685.99998696 685.99998696 685.99997450 685.99992051 685.99984442 685.99981575 685.99976277 685.99938131 685.99786799 685.99232751 685.96131977 685.77945664 684.80958396 680.43572552 664.70994752 620.88216835 530.98580375 405.74330086 300.00000000 300.00000000 300.00000000 300.00000000 300.00000000 300.00000000 459.62614347 585.36988581 652.70184637 677.69712770 684.41404534 685.76481150 685.97178807 685.99692789 685.99958915 685.99990531 685.99997858 685.99999246 685.99999346 685.99999433 685.99999768 685.99999955 685.99999978 685.99999978 685.99999955 685.99999768 685.99999433 685.99999346 685.99999246 685.99997858 685.99990531 685.99958915 685.99692789 685.97178807 685.76481150 684.41404534 677.69712770 652.70184637 585.36988581 459.62614347 300.00000000 300.00000000 300.00000000 300.00000000 300.00000000 300.00000000 488.20740467 611.06785484 665.43723580 681.88072941 685.39484781 685.93516009 685.99494984 685.99970192 685.99998134 685.99999721 685.99999961 685.99999986 685.99999986 685.99999987 685.99999997 686.00000000 686.00000000 686.00000000 686.00000000 685.99999997 685.99999987 685.99999986 685.99999986 685.99999961 685.99999721 685.99998134 685.99970192 685.99494984 685.93516009 685.39484781 681.88072941 665.43723580 611.06785484 488.20740467 300.00000000 300.00000000 300.00000000 300.00000000 300.00000000 361.76521614 514.99107115 624.36758670 670.42887909 683.18668985 685.63402564 685.96596614 685.99778041 685.99990169 685.99999705 685.99999990 686.00000000 686.00000000 686.00000000 686.00000000 686.00000000 686.00000000 686.00000000 686.00000000 686.00000000 686.00000000 686.00000000 686.00000000 686.00000000 686.00000000 685.99999990 685.99999705 685.99990169 685.99778041 685.96596614 685.63402564 683.18668985 670.42887909 624.36758670 514.99107115 361.76521614 300.00000000 300.00000000 300.00000000 300.00000000 361.76521614 514.99107115 624.36758670 670.42887909 683.18668985 685.63402564 685.96596614 685.99778041 685.99990169 685.99999705 685.99999990 686.00000000 686.00000000 686.00000000 686.00000000 686.00000000 686.00000000 686.00000000 686.00000000 686.00000000 686.00000000 686.00000000 686.00000000 686.00000000 686.00000000 685.99999990 685.99999705 685.99990169 685.99778041 685.96596614 685.63402564 683.18668985 670.42887909 624.36758670 514.99107115 361.76521614 300.00000000 300.00000000 300.00000000 300.00000000 300.00000000 488.20740467 611.06785484 665.43723580 681.88072941 685.39484781 685.93516009 685.99494984 685.99970192 685.99998134 685.99999721 685.99999961 685.99999986 685.99999986 685.99999987 685.99999997 686.00000000 686.00000000 686.00000000 686.00000000 685.99999997 685.99999987 685.99999986 685.99999986 685.99999961 685.99999721 685.99998134 685.99970192 685.99494984 685.93516009 685.39484781 681.88072941 665.43723580 611.06785484 488.20740467 300.00000000 300.00000000 300.00000000 300.00000000 300.00000000 300.00000000 459.62614347 585.36988581 652.70184637 677.69712770 684.41404534 685.76481150 685.97178807 685.99692789 685.99958915 685.99990531 685.99997858 685.99999246 685.99999346 685.99999433 685.99999768 685.99999955 685.99999978 685.99999978 685.99999955 685.99999768 685.99999433 685.99999346 685.99999246 685.99997858 685.99990531 685.99958915 685.99692789 685.97178807 685.76481150 684.41404534 677.69712770 652.70184637 585.36988581 459.62614347 300.00000000 300.00000000 300.00000000 300.00000000 300.00000000 300.00000000 405.74330086 530.98580375 620.88216835 664.70994752 680.43572552 684.80958396 685.77945664 685.96131977 685.99232751 685.99786799 685.99938131 685.99976277 685.99981575 685.99984442 685.99992051 685.99997450 685.99998696 685.99998696 685.99997450 685.99992051 685.99984442 685.99981575 685.99976277 685.99938131 685.99786799 685.99232751 685.96131977 685.77945664 684.80958396 680.43572552 664.70994752 620.88216835 530.98580375 405.74330086 300.00000000 300.00000000 300.00000000 300.00000000 300.00000000 300.00000000 300.00000000 432.94951770 556.39160592 631.79596151 667.20892759 680.49604728 684.55508364 685.63941824 685.90351585 685.96793396 685.98881002 685.99518849 685.99646205 685.99707438 685.99829246 685.99927757 685.99958897 685.99958897 685.99927757 685.99829246 685.99707438 685.99646205 685.99518849 685.98881002 685.96793396 685.90351585 685.63941824 684.55508364 680.49604728 667.20892759 631.79596151 556.39160592 432.94951770 300.00000000 300.00000000 300.00000000 300.00000000 300.00000000 300.00000000 300.00000000 300.00000000 300.00000000 460.05200362 566.07709093 631.89515137 665.08415631 678.61621585 683.54197113 685.15176723 685.66393134 685.86249429 685.93346939 685.95161848 685.96042716 685.97474225 685.98718185 685.99194496 685.99194496 685.98718185 685.97474225 685.96042716 685.95161848 685.93346939 685.86249429 685.66393134 685.15176723 683.54197113 678.61621585 665.08415631 631.89515137 566.07709093 460.05200362 300.00000000 300.00000000 300.00000000 300.00000000 300.00000000 300.00000000 300.00000000 300.00000000 300.00000000 300.00000000 371.09840335 460.10333402 556.77076947 622.42281113 656.87602838 673.59638892 680.63868719 683.48279896 684.80705721 685.35125976 685.51913287 685.60607796 685.73124883 685.84463724 685.89377487 685.89377487 685.84463724 685.73124883 685.60607796 685.51913287 685.35125976 684.80705721 683.48279896 680.63868719 673.59638892 656.87602838 622.42281113 556.77076947 460.10333402 371.09840335 300.00000000 300.00000000 300.00000000 300.00000000 300.00000000 300.00000000 300.00000000 300.00000000 300.00000000 300.00000000 300.00000000 300.00000000 433.70632553 535.00194265 597.94012694 639.44840808 661.27941152 672.34615421 678.56368702 681.46043158 682.49889795 683.09049492 683.90404905 684.66198225 685.01800122 685.01800122 684.66198225 683.90404905 683.09049492 682.49889795 681.46043158 678.56368702 672.34615421 661.27941152 639.44840808 597.94012694 535.00194265 433.70632553 300.00000000 300.00000000 300.00000000 300.00000000 300.00000000 300.00000000 300.00000000 300.00000000 300.00000000 300.00000000 300.00000000 300.00000000 300.00000000 300.00000000 300.00000000 411.09632716 480.87928431 556.37155051 602.55245918 632.28000954 652.59129780 663.10352275 667.35598753 670.08968970 673.98021169 677.69001776 679.51899037 679.51899037 677.69001776 673.98021169 670.08968970 667.35598753 663.10352275 652.59129780 632.28000954 602.55245918 556.37155051 480.87928431 411.09632716 300.00000000 300.00000000 300.00000000 300.00000000 300.00000000 300.00000000 300.00000000 300.00000000 300.00000000 300.00000000 300.00000000 300.00000000 300.00000000 300.00000000 300.00000000 300.00000000 300.00000000 300.00000000 420.01047333 479.55940527 534.14915924 578.91126833 603.38938942 614.18341069 622.31417162 635.81858703 648.88381592 655.42381138 655.42381138 648.88381592 635.81858703 622.31417162 614.18341069 603.38938942 578.91126833 534.14915924 479.55940527 420.01047333 300.00000000 300.00000000 300.00000000 300.00000000 300.00000000 300.00000000 300.00000000 300.00000000 300.00000000 300.00000000 300.00000000 300.00000000 300.00000000 300.00000000 300.00000000 300.00000000 300.00000000 300.00000000 300.00000000 300.00000000 300.00000000 300.00000000 382.97877360 444.70431707 475.26966181 489.03219051 502.22540314 536.93084436 568.92134725 584.25192552 584.25192552 568.92134725 536.93084436 502.22540314 489.03219051 475.26966181 444.70431707 382.97877360 300.00000000 300.00000000 300.00000000 300.00000000 300.00000000 300.00000000 300.00000000 300.00000000 300.00000000 300.00000000 300.00000000 300.00000000 300.00000000 300.00000000 300.00000000 300.00000000 300.00000000 300.00000000 300.00000000 300.00000000 300.00000000 300.00000000 300.00000000 300.00000000 300.00000000 300.00000000 300.00000000 300.00000000 300.00000000 380.85504711 431.12176984 450.99588980 450.99588980 431.12176984 380.85504711 300.00000000 300.00000000 300.00000000 300.00000000 300.00000000 300.00000000 300.00000000 300.00000000 300.00000000 300.00000000 300.00000000 300.00000000 300.00000000 300.00000000 300.00000000 300.00000000 300.00000000 300.00000000 300.00000000 300.00000000 300.00000000 300.00000000 300.00000000 300.00000000 300.00000000 300.00000000 300.00000000 300.00000000 300.00000000 300.00000000 300.00000000 300.00000000 300.00000000 300.00000000 300.00000000 300.00000000 300.00000000 300.00000000 300.00000000 300.00000000 300.00000000 300.00000000 300.00000000 300.00000000 300.00000000 300.00000000 300.00000000 300.00000000 300.00000000 300.00000000 300.00000000 300.00000000 300.00000000 300.00000000 300.00000000 300.00000000 300.00000000 300.00000000 300.00000000 300.00000000 300.00000000 300.00000000 300.00000000 300.00000000 300.00000000 300.00000000 300.00000000 300.00000000 300.00000000 300.00000000 300.00000000 300.00000000 300.00000000 300.00000000 300.00000000 300.00000000 300.00000000 300.00000000 300.00000000 300.00000000 300.00000000 300.00000000 300.00000000 300.00000000 300.00000000 300.00000000 300.00000000 300.00000000 300.00000000 300.00000000 300.00000000 300.00000000 300.00000000 300.00000000 300.00000000 300.00000000 300.00000000 300.00000000 300.00000000 300.00000000 300.00000000 300.00000000 300.00000000 300.00000000 300.00000000 300.00000000 300.00000000 300.00000000 300.00000000 300.00000000 300.00000000 300.00000000 300.00000000 300.00000000 300.00000000 300.00000000 300.00000000 300.00000000 300.00000000 300.00000000 300.00000000 300.00000000 300.00000000 300.00000000 300.00000000 300.00000000 300.00000000 300.00000000 300.00000000 300.00000000 300.00000000 300.00000000 300.00000000 300.00000000 300.00000000 300.00000000 300.00000000 300.00000000 300.00000000 300.00000000 300.00000000 300.00000000 300.00000000 300.00000000 300.00000000 300.00000000 300.00000000 300.00000000 300.00000000 300.00000000 300.00000000 300.00000000 300.00000000 300.00000000 300.00000000 300.00000000 300.00000000 300.00000000 300.00000000 300.00000000 300.00000000 300.00000000 300.00000000 300.00000000 300.00000000 300.00000000 300.00000000 300.00000000 300.00000000 300.00000000 300.00000000 300.00000000 300.00000000 300.00000000 300.00000000 300.00000000 300.00000000 300.00000000 300.00000000 300.00000000 300.00000000 300.00000000 300.00000000 300.00000000 300.00000000 300.00000000 300.00000000 300.00000000 300.00000000 300.00000000 300.00000000 300.00000000 300.00000000 300.00000000 300.00000000 300.00000000 300.00000000 300.00000000 300.00000000 300.00000000 300.00000000 300.00000000 300.00000000 300.00000000 300.00000000 300.00000000 300.00000000 300.00000000 300.00000000 300.00000000 300.00000000 300.00000000 300.00000000 300.00000000 300.00000000 300.00000000 300.00000000 300.00000000 300.00000000 300.00000000 300.00000000 300.00000000 300.00000000 300.00000000 300.00000000 300.00000000 300.00000000 300.00000000 300.00000000 300.00000000 300.00000000 300.00000000 300.00000000 300.00000000 300.00000000 300.00000000 300.00000000 300.00000000 300.00000000 300.00000000 300.00000000 300.00000000 300.00000000 300.00000000 300.00000000 300.00000000 300.00000000 300.00000000 300.00000000 300.00000000 300.00000000 300.00000000 300.00000000 300.00000000 300.00000000 300.00000000 300.00000000 300.00000000 300.00000000 300.00000000 300.00000000 300.00000000 300.00000000 300.00000000 300.00000000 300.00000000 300.00000000 300.00000000 300.00000000 300.00000000 300.00000000 300.00000000 300.00000000 300.00000000 300.00000000 300.00000000 300.00000000 300.00000000 300.00000000 300.00000000 300.00000000 300.00000000 300.00000000 300.00000000 300.00000000 300.00000000 300.00000000 300.00000000 300.00000000 300.00000000 300.00000000 300.00000000 300.00000000 300.00000000 300.00000000 300.00000000 300.00000000 300.00000000 300.00000000 300.00000000 300.00000000 300.00000000 300.00000000 300.00000000 300.00000000 300.00000000 300.00000000 300.00000000 300.00000000 300.00000000 300.00000000 300.00000000 300.00000000 300.00000000 300.00000000 300.00000000 300.00000000 300.00000000 300.00000000 300.00000000 300.00000000 300.00000000 300.00000000 300.00000000 300.00000000 300.00000000 300.00000000 300.00000000 300.00000000 300.00000000 300.00000000 300.00000000 300.00000000 300.00000000 300.00000000 300.00000000 300.00000000 