# vtk DataFile Version 3.0
VTK - Matlab export
ASCII
DATASET STRUCTURED_POINTS
DIMENSIONS 40 40 1
SPACING 1 1 1
ORIGIN 0 0 0
POINT_DATA 1600
SCALARS Temperature float 1
LOOKUP_TABLE default
300.00000000 300.00000000 300.00000000 300.00000000 300.00000000 300.00000000 300.00000000 300.00000000 300.00000000 300.00000000 300.00000000 300.00000000 300.00000000 300.00000000 300.00000000 300.00000000 300.00000000 300.00000000 300.00000000 300.00000000 300.00000000 300.00000000 300.00000000 300.00000000 300.00000000 300.00000000 300.00000000 300.00000000 300.00000000 300.00000000 300.00000000 300.00000000 300.00000000 300.00000000 300.00000000 300.00000000 300.00000000 300.00000000 300.00000000 300.00000000 300.00000000 300.00000000 300.00000000 300.00000000 300.00000000 300.00000000 300.00000000 300.00000000 300.00000000 300.00000000 300.00000000 300.00000000 300.00000000 300.00000000 300.00000000 300.00000000 300.00000000 300.00000000 300.00000000 300.00000000 300.00000000 300.00000000 300.00000000 300.00000000 300.00000000 300.00000000 300.00000000 300.00000000 300.00000000 300.00000000 300.00000000 300.00000000 300.00000000 300.00000000 300.00000000 300.00000000 300.00000000 300.00000000 300.00000000 300.00000000 300.00000000 300.00000000 300.00000000 300.00000000 300.00000000 300.00000000 300.00000000 300.00000000 300.00000000 300.00000000 300.00000000 300.00000000 300.00000000 300.00000000 300.00000000 300.00000000 300.00000000 300.00000000 300.00000000 300.00000000 300.00000000 300.00000000 300.00000000 300.00000000 300.00000000 300.00000000 300.00000000 300.00000000 300.00000000 300.00000000 300.00000000 300.00000000 300.00000000 300.00000000 300.00000000 300.00000000 300.00000000 300.00000000 300.00000000 300.00000000 300.00000000 300.00000000 300.00000000 300.00000000 300.00000000 300.00000000 300.00000000 300.00000000 300.00000000 300.00000000 300.00000000 300.00000000 300.00000000 300.00000000 300.00000000 300.00000000 300.00000000 300.00000000 300.00000000 300.00000000 300.00000000 300.00000000 300.00000000 300.00000000 300.00000000 300.00000000 300.00000000 300.00000000 300.00000000 300.00000000 300.00000000 300.00000000 300.00000000 300.00000000 300.00000000 300.00000000 300.00000000 300.00000000 300.00000000 300.00000000 300.00000000 300.00000000 300.00000000 300.00000000 300.00000000 300.00000000 300.00000000 300.00000000 300.00000000 300.00000000 300.00000000 300.00000000 300.00000000 300.00000000 300.00000000 300.00000000 300.00000000 300.00000000 300.00000000 300.00000000 300.00000000 300.00000000 300.00000000 300.00000000 300.00000000 300.00000000 300.00000000 300.00000000 300.00000000 300.00000000 300.00000000 300.00000000 300.00000000 300.00000000 300.00000000 300.00000000 300.00000000 300.00000000 300.00000000 300.00000000 300.00000000 300.00000000 300.00000000 300.00000000 300.00000000 300.00000000 300.00000000 300.00000000 300.00000000 300.00000000 300.00000000 300.00000000 300.00000000 300.00000000 300.00000000 300.00000000 300.00000000 300.00000000 300.00000000 300.00000000 300.00000000 300.00000000 300.00000000 300.00000000 300.00000000 300.00000000 300.00000000 300.00000000 300.00000000 300.00000000 300.00000000 300.00000000 300.00000000 300.00000000 300.00000000 300.00000000 300.00000000 300.00000000 300.00000000 300.00000000 300.00000000 300.00000000 300.00000000 300.00000000 300.00000000 300.00000000 300.00000000 300.00000000 300.00000000 300.00000000 300.00000000 300.00000000 300.00000000 300.00000000 300.00000000 300.00000000 300.00000000 300.00000000 300.00000000 300.00000000 300.00000000 300.00000000 300.00000000 300.00000000 300.00000000 300.00000000 300.00000000 300.00000000 300.00000000 300.00000000 300.00000000 300.00000000 300.00000000 300.00000000 300.00000000 300.00000000 300.00000000 300.00000000 300.00000000 300.00000000 300.00000000 300.00000000 300.00000000 300.00000000 300.00000000 300.00000000 300.00000000 300.00000000 300.00000000 300.00000000 300.00000000 300.00000000 300.00000000 300.00000000 300.00000000 300.00000000 300.00000000 300.00000000 300.00000000 300.00000000 300.00000000 300.00000000 300.00000000 300.00000000 300.00000000 300.00000000 300.00000000 300.00000000 300.00000000 300.00000000 300.00000000 300.00000000 300.00000000 300.00000000 300.00000000 300.00000000 300.00000000 300.00000000 300.00000000 300.00000000 300.00000000 300.00000000 300.00000000 300.00000000 300.00000000 300.00000000 300.00000000 300.00000000 300.00000000 300.00000000 300.00000000 300.00000000 300.00000000 300.00000000 300.00000000 300.00000000 300.00000000 397.90609939 460.14141980 483.53237950 483.53237950 460.14141980 397.90609939 300.00000000 300.00000000 300.00000000 300.00000000 300.00000000 300.00000000 300.00000000 300.00000000 300.00000000 300.00000000 300.00000000 300.00000000 300.00000000 300.00000000 300.00000000 300.00000000 300.00000000 300.00000000 300.00000000 300.00000000 300.00000000 300.00000000 300.00000000 300.00000000 300.00000000 300.00000000 300.00000000 300.00000000 300.00000000 399.81457892 473.03861727 505.21057751 516.73387049 528.88527581 568.48808631 603.88428359 618.80905632 618.80905632 603.88428359 568.48808631 528.88527581 516.73387049 505.21057751 473.03861727 399.81457892 300.00000000 300.00000000 300.00000000 300.00000000 300.00000000 300.00000000 300.00000000 300.00000000 300.00000000 300.00000000 300.00000000 300.00000000 300.00000000 300.00000000 300.00000000 300.00000000 300.00000000 300.00000000 300.00000000 300.00000000 300.00000000 300.00000000 442.72820952 508.48121348 566.42201969 611.46962405 631.84848121 638.40036774 643.80382125 656.12421500 667.41337305 672.04036795 672.04036795 667.41337305 656.12421500 643.80382125 638.40036774 631.84848121 611.46962405 566.42201969 508.48121348 442.72820952 300.00000000 300.00000000 300.00000000 300.00000000 300.00000000 300.00000000 300.00000000 300.00000000 300.00000000 300.00000000 300.00000000 300.00000000 300.00000000 300.00000000 300.00000000 300.00000000 300.00000000 300.00000000 433.23106673 509.52637401 589.01841289 630.65582547 654.41978552 669.49737291 675.62612786 677.27000044 678.45816299 681.04406566 683.31525204 684.15514618 684.15514618 683.31525204 681.04406566 678.45816299 677.27000044 675.62612786 669.49737291 654.41978552 630.65582547 589.01841289 509.52637401 433.23106673 300.00000000 300.00000000 300.00000000 300.00000000 300.00000000 300.00000000 300.00000000 300.00000000 300.00000000 300.00000000 300.00000000 300.00000000 300.00000000 300.00000000 300.00000000 456.56725538 568.54760582 626.98183110 660.49171484 674.63058028 680.58460478 683.65220860 684.71241089 684.93325420 685.08677323 685.45557327 685.75459942 685.84686341 685.84686341 685.75459942 685.45557327 685.08677323 684.93325420 684.71241089 683.65220860 680.58460478 674.63058028 660.49171484 626.98183110 568.54760582 456.56725538 300.00000000 300.00000000 300.00000000 300.00000000 300.00000000 300.00000000 300.00000000 300.00000000 300.00000000 300.00000000 300.00000000 300.00000000 387.53184163 488.06387458 588.87799646 648.16293611 672.32299180 681.56192072 684.47287128 685.39571981 685.78835524 685.89758550 685.91325300 685.92536759 685.96130706 685.98670667 685.99246377 685.99246377 685.98670667 685.96130706 685.92536759 685.91325300 685.89758550 685.78835524 685.39571981 684.47287128 681.56192072 672.32299180 648.16293611 588.87799646 488.06387458 387.53184163 300.00000000 300.00000000 300.00000000 300.00000000 300.00000000 300.00000000 300.00000000 300.00000000 300.00000000 300.00000000 488.05826459 598.48349244 655.09313869 677.39104832 683.84293702 685.49983369 685.86962125 685.95740835 685.98868095 685.99498974 685.99545494 685.99602342 685.99836262 685.99964844 685.99980748 685.99980748 685.99964844 685.99836262 685.99602342 685.99545494 685.99498974 685.98868095 685.95740835 685.86962125 685.49983369 683.84293702 677.39104832 655.09313869 598.48349244 488.05826459 300.00000000 300.00000000 300.00000000 300.00000000 300.00000000 300.00000000 300.00000000 300.00000000 300.00000000 456.30278097 588.79937176 655.08305513 678.46433272 684.59569377 685.77447103 685.96553453 685.99334894 685.99825649 685.99970152 685.99986037 685.99986037 685.99987358 685.99996794 685.99999812 685.99999812 685.99999812 685.99999812 685.99996794 685.99987358 685.99986037 685.99986037 685.99970152 685.99825649 685.99334894 685.96553453 685.77447103 684.59569377 678.46433272 655.08305513 588.79937176 456.30278097 300.00000000 300.00000000 300.00000000 300.00000000 300.00000000 300.00000000 300.00000000 429.40289936 566.50926129 647.66311644 677.32286276 684.59046465 685.83782886 685.98541408 685.99873097 685.99982070 685.99996794 685.99999812 685.99999812 685.99999812 685.99999812 686.00000000 686.00000000 686.00000000 686.00000000 686.00000000 686.00000000 685.99999812 685.99999812 685.99999812 685.99999812 685.99996794 685.99982070 685.99873097 685.98541408 685.83782886 684.59046465 677.32286276 647.66311644 566.50926129 429.40289936 300.00000000 300.00000000 300.00000000 300.00000000 300.00000000 300.00000000 490.58162658 618.68858580 670.48848437 683.60343025 685.75597145 685.98464545 685.99941639 685.99998116 685.99999812 686.00000000 686.00000000 686.00000000 686.00000000 686.00000000 686.00000000 686.00000000 686.00000000 686.00000000 686.00000000 686.00000000 686.00000000 686.00000000 686.00000000 686.00000000 686.00000000 685.99999812 685.99998116 685.99941639 685.98464545 685.75597145 683.60343025 670.48848437 618.68858580 490.58162658 300.00000000 300.00000000 300.00000000 300.00000000 300.00000000 300.00000000 519.64068783 638.67285159 677.18536645 684.92001023 685.91411026 685.99571479 685.99987170 685.99999812 686.00000000 686.00000000 686.00000000 686.00000000 686.00000000 686.00000000 686.00000000 686.00000000 686.00000000 686.00000000 686.00000000 686.00000000 686.00000000 686.00000000 686.00000000 686.00000000 686.00000000 686.00000000 685.99999812 685.99987170 685.99571479 685.91411026 684.92001023 677.18536645 638.67285159 519.64068783 300.00000000 300.00000000 300.00000000 300.00000000 300.00000000 377.41241137 551.26910753 650.24096218 679.97537106 685.34575258 685.95521027 685.99821666 685.99996794 686.00000000 686.00000000 686.00000000 686.00000000 686.00000000 686.00000000 686.00000000 686.00000000 686.00000000 686.00000000 686.00000000 686.00000000 686.00000000 686.00000000 686.00000000 686.00000000 686.00000000 686.00000000 686.00000000 686.00000000 685.99996794 685.99821666 685.95521027 685.34575258 679.97537106 650.24096218 551.26910753 377.41241137 300.00000000 300.00000000 300.00000000 300.00000000 377.41241137 551.26910753 650.24096218 679.97537106 685.34575258 685.95521027 685.99821666 685.99996794 686.00000000 686.00000000 686.00000000 686.00000000 686.00000000 686.00000000 686.00000000 686.00000000 686.00000000 686.00000000 686.00000000 686.00000000 686.00000000 686.00000000 686.00000000 686.00000000 686.00000000 686.00000000 686.00000000 686.00000000 685.99996794 685.99821666 685.95521027 685.34575258 679.97537106 650.24096218 551.26910753 377.41241137 300.00000000 300.00000000 300.00000000 300.00000000 300.00000000 519.64068783 638.67285159 677.18536645 684.92001023 685.91411026 685.99571479 685.99987170 685.99999812 686.00000000 686.00000000 686.00000000 686.00000000 686.00000000 686.00000000 686.00000000 686.00000000 686.00000000 686.00000000 686.00000000 686.00000000 686.00000000 686.00000000 686.00000000 686.00000000 686.00000000 686.00000000 685.99999812 685.99987170 685.99571479 685.91411026 684.92001023 677.18536645 638.67285159 519.64068783 300.00000000 300.00000000 300.00000000 300.00000000 300.00000000 300.00000000 490.58162658 618.68858580 670.48848437 683.60343025 685.75597145 685.98464545 685.99941639 685.99998116 685.99999812 686.00000000 686.00000000 686.00000000 686.00000000 686.00000000 686.00000000 686.00000000 686.00000000 686.00000000 686.00000000 686.00000000 686.00000000 686.00000000 686.00000000 686.00000000 686.00000000 685.99999812 685.99998116 685.99941639 685.98464545 685.75597145 683.60343025 670.48848437 618.68858580 490.58162658 300.00000000 300.00000000 300.00000000 300.00000000 300.00000000 300.00000000 429.40289936 566.50926129 647.66311644 677.32286276 684.59046465 685.83782886 685.98541408 685.99873097 685.99982070 685.99996794 685.99999812 685.99999812 685.99999812 685.99999812 686.00000000 686.00000000 686.00000000 686.00000000 686.00000000 686.00000000 685.99999812 685.99999812 685.99999812 685.99999812 685.99996794 685.99982070 685.99873097 685.98541408 685.83782886 684.59046465 677.32286276 647.66311644 566.50926129 429.40289936 300.00000000 300.00000000 300.00000000 300.00000000 300.00000000 300.00000000 300.00000000 456.30278097 588.79937176 655.08305513 678.46433272 684.59569377 685.77447103 685.96553453 685.99334894 685.99825649 685.99970152 685.99986037 685.99986037 685.99987358 685.99996794 685.99999812 685.99999812 685.99999812 685.99999812 685.99996794 685.99987358 685.99986037 685.99986037 685.99970152 685.99825649 685.99334894 685.96553453 685.77447103 684.59569377 678.46433272 655.08305513 588.79937176 456.30278097 300.00000000 300.00000000 300.00000000 300.00000000 300.00000000 300.00000000 300.00000000 300.00000000 300.00000000 488.05826459 598.48349244 655.09313869 677.39104832 683.84293702 685.49983369 685.86962125 685.95740835 685.98868095 685.99498974 685.99545494 685.99602342 685.99836262 685.99964844 685.99980748 685.99980748 685.99964844 685.99836262 685.99602342 685.99545494 685.99498974 685.98868095 685.95740835 685.86962125 685.49983369 683.84293702 677.39104832 655.09313869 598.48349244 488.05826459 300.00000000 300.00000000 300.00000000 300.00000000 300.00000000 300.00000000 300.00000000 300.00000000 300.00000000 300.00000000 387.53184163 488.06387458 588.87799646 648.16293611 672.32299180 681.56192072 684.47287128 685.39571981 685.78835524 685.89758550 685.91325300 685.92536759 685.96130706 685.98670667 685.99246377 685.99246377 685.98670667 685.96130706 685.92536759 685.91325300 685.89758550 685.78835524 685.39571981 684.47287128 681.56192072 672.32299180 648.16293611 588.87799646 488.06387458 387.53184163 300.00000000 300.00000000 300.00000000 300.00000000 300.00000000 300.00000000 300.00000000 300.00000000 300.00000000 300.00000000 300.00000000 300.00000000 456.56725538 568.54760582 626.98183110 660.49171484 674.63058028 680.58460478 683.65220860 684.71241089 684.93325420 685.08677323 685.45557327 685.75459942 685.84686341 685.84686341 685.75459942 685.45557327 685.08677323 684.93325420 684.71241089 683.65220860 680.58460478 674.63058028 660.49171484 626.98183110 568.54760582 456.56725538 300.00000000 300.00000000 300.00000000 300.00000000 300.00000000 300.00000000 300.00000000 300.00000000 300.00000000 300.00000000 300.00000000 300.00000000 300.00000000 300.00000000 300.00000000 433.23106673 509.52637401 589.01841289 630.65582547 654.41978552 669.49737291 675.62612786 677.27000044 678.45816299 681.04406566 683.31525204 684.15514618 684.15514618 683.31525204 681.04406566 678.45816299 677.27000044 675.62612786 669.49737291 654.41978552 630.65582547 589.01841289 509.52637401 433.23106673 300.00000000 300.00000000 300.00000000 300.00000000 300.00000000 300.00000000 300.00000000 300.00000000 300.00000000 300.00000000 300.00000000 300.00000000 300.00000000 300.00000000 300.00000000 300.00000000 300.00000000 300.00000000 442.72820952 508.48121348 566.42201969 611.46962405 631.84848121 638.40036774 643.80382125 656.12421500 667.41337305 672.04036795 672.04036795 667.41337305 656.12421500 643.80382125 638.40036774 631.84848121 611.46962405 566.42201969 508.48121348 442.72820952 300.00000000 300.00000000 300.00000000 300.00000000 300.00000000 300.00000000 300.00000000 300.00000000 300.00000000 300.00000000 300.00000000 300.00000000 300.00000000 300.00000000 300.00000000 300.00000000 300.00000000 300.00000000 300.00000000 300.00000000 300.00000000 300.00000000 399.81457892 473.03861727 505.21057751 516.73387049 528.88527581 568.48808631 603.88428359 618.80905632 618.80905632 603.88428359 568.48808631 528.88527581 516.73387049 505.21057751 473.03861727 399.81457892 300.00000000 300.00000000 300.00000000 300.00000000 300.00000000 300.00000000 300.00000000 300.00000000 300.00000000 300.00000000 300.00000000 300.00000000 300.00000000 300.00000000 300.00000000 300.00000000 300.00000000 300.00000000 300.00000000 300.00000000 300.00000000 300.00000000 300.00000000 300.00000000 300.00000000 300.00000000 300.00000000 300.00000000 300.00000000 397.90609939 460.14141980 483.53237950 483.53237950 460.14141980 397.90609939 300.00000000 300.00000000 300.00000000 300.00000000 300.00000000 300.00000000 300.00000000 300.00000000 300.00000000 300.00000000 300.00000000 300.00000000 300.00000000 300.00000000 300.00000000 300.00000000 300.00000000 300.00000000 300.00000000 300.00000000 300.00000000 300.00000000 300.00000000 300.00000000 300.00000000 300.00000000 300.00000000 300.00000000 300.00000000 300.00000000 300.00000000 300.00000000 300.00000000 300.00000000 300.00000000 300.00000000 300.00000000 300.00000000 300.00000000 300.00000000 300.00000000 300.00000000 300.00000000 300.00000000 300.00000000 300.00000000 300.00000000 300.00000000 300.00000000 300.00000000 300.00000000 300.00000000 300.00000000 300.00000000 300.00000000 300.00000000 300.00000000 300.00000000 300.00000000 300.00000000 300.00000000 300.00000000 300.00000000 300.00000000 300.00000000 300.00000000 300.00000000 300.00000000 300.00000000 300.00000000 300.00000000 300.00000000 300.00000000 300.00000000 300.00000000 300.00000000 300.00000000 300.00000000 300.00000000 300.00000000 300.00000000 300.00000000 300.00000000 300.00000000 300.00000000 300.00000000 300.00000000 300.00000000 300.00000000 300.00000000 300.00000000 300.00000000 300.00000000 300.00000000 300.00000000 300.00000000 300.00000000 300.00000000 300.00000000 300.00000000 300.00000000 300.00000000 300.00000000 300.00000000 300.00000000 300.00000000 300.00000000 300.00000000 300.00000000 300.00000000 300.00000000 300.00000000 300.00000000 300.00000000 300.00000000 300.00000000 300.00000000 300.00000000 300.00000000 300.00000000 300.00000000 300.00000000 300.00000000 300.00000000 300.00000000 300.00000000 300.00000000 300.00000000 300.00000000 300.00000000 300.00000000 300.00000000 300.00000000 300.00000000 300.00000000 300.00000000 300.00000000 300.00000000 300.00000000 300.00000000 300.00000000 300.00000000 300.00000000 300.00000000 300.00000000 300.00000000 300.00000000 300.00000000 300.00000000 300.00000000 300.00000000 300.00000000 300.00000000 300.00000000 300.00000000 300.00000000 300.00000000 300.00000000 300.00000000 300.00000000 300.00000000 300.00000000 300.00000000 300.00000000 300.00000000 300.00000000 300.00000000 300.00000000 300.00000000 300.00000000 300.00000000 300.00000000 300.00000000 300.00000000 300.00000000 300.00000000 300.00000000 300.00000000 300.00000000 300.00000000 300.00000000 300.00000000 300.00000000 300.00000000 300.00000000 300.00000000 300.00000000 300.00000000 300.00000000 300.00000000 300.00000000 300.00000000 300.00000000 300.00000000 300.00000000 300.00000000 300.00000000 300.00000000 300.00000000 300.00000000 300.00000000 300.00000000 300.00000000 300.00000000 300.00000000 300.00000000 300.00000000 300.00000000 300.00000000 300.00000000 300.00000000 300.00000000 300.00000000 300.00000000 300.00000000 300.00000000 300.00000000 300.00000000 300.00000000 300.00000000 300.00000000 300.00000000 300.00000000 300.00000000 300.00000000 300.00000000 300.00000000 300.00000000 300.00000000 300.00000000 300.00000000 300.00000000 300.00000000 300.00000000 300.00000000 300.00000000 300.00000000 300.00000000 300.00000000 300.00000000 300.00000000 300.00000000 300.00000000 300.00000000 300.00000000 300.00000000 300.00000000 300.00000000 300.00000000 300.00000000 300.00000000 300.00000000 300.00000000 300.00000000 300.00000000 300.00000000 300.00000000 300.00000000 300.00000000 300.00000000 300.00000000 300.00000000 300.00000000 300.00000000 300.00000000 300.00000000 300.00000000 300.00000000 300.00000000 300.00000000 300.00000000 300.00000000 300.00000000 300.00000000 300.00000000 300.00000000 300.00000000 300.00000000 300.00000000 300.00000000 300.00000000 300.00000000 300.00000000 300.00000000 300.00000000 300.00000000 300.00000000 300.00000000 300.00000000 300.00000000 300.00000000 300.00000000 300.00000000 300.00000000 300.00000000 300.00000000 300.00000000 300.00000000 300.00000000 300.00000000 300.00000000 300.00000000 300.00000000 300.00000000 300.00000000 300.00000000 300.00000000 300.00000000 300.00000000 300.00000000 300.00000000 300.00000000 300.00000000 300.00000000 300.00000000 300.00000000 300.00000000 300.00000000 300.00000000 300.00000000 300.00000000 300.00000000 300.00000000 300.00000000 300.00000000 300.00000000 300.00000000 300.00000000 300.00000000 300.00000000 300.00000000 300.00000000 300.00000000 300.00000000 300.00000000 300.00000000 300.00000000 