# vtk DataFile Version 3.0
VTK - Matlab export
ASCII
DATASET STRUCTURED_POINTS
DIMENSIONS 40 40 1
SPACING 1 1 1
ORIGIN 0 0 0
POINT_DATA 1600
SCALARS lambda-2 float 1
LOOKUP_TABLE default
7.22156776 7.22156776 7.22156776 7.22156776 7.22156776 7.22156776 7.22156776 7.22156776 7.22156776 7.22156776 7.22156776 7.22156776 7.22156776 7.22156776 7.22156776 7.22156776 7.22156776 7.22156776 7.22156776 7.22156776 7.22156776 7.22156776 7.22156776 7.22156776 7.22156776 7.22156776 7.22156776 7.22156776 7.22156776 7.22156776 7.22156776 7.22156776 7.22156776 7.22156776 7.22156776 7.22156776 7.22156776 7.22156776 7.22156776 7.22156776 7.22156776 7.22156776 7.22156776 7.22156776 7.22156776 7.22156776 7.22156776 7.22156776 7.22156776 7.22156776 7.22156776 7.22156776 7.22156776 7.22156776 7.22156776 7.22156776 7.22156776 7.22156776 7.22156776 7.22156776 7.22156776 7.22156776 7.22156776 7.22156776 7.22156776 7.22156776 7.22156776 7.22156776 7.22156776 7.22156776 7.22156776 7.22156776 7.22156776 7.22156776 7.22156776 7.22156776 7.22156776 7.22156776 7.22156776 7.22156776 7.22156776 7.22156776 7.22156776 7.22156776 7.22156776 7.22156776 7.22156776 7.22156776 7.22156776 7.22156776 7.22156776 7.22156776 7.22156776 7.22156776 7.22156776 7.22156776 7.22156776 7.22156776 7.22156776 7.22156776 7.22156776 7.22156776 7.22156776 7.22156776 7.22156776 7.22156776 7.22156776 7.22156776 7.22156776 7.22156776 7.22156776 7.22156776 7.22156776 7.22156776 7.22156776 7.22156776 7.22156776 7.22156776 7.22156776 7.22156776 7.22156776 7.22156776 7.22156776 7.22156776 7.22156776 7.22156776 7.22156776 7.22156776 7.22156776 7.22156776 7.22156776 7.22156776 7.22156776 7.22156776 7.22156776 7.22156776 7.22156776 7.22156776 7.22156776 7.22156776 7.22156776 7.22156776 7.22156776 7.22156776 7.22156776 7.22156776 7.22156776 7.22156776 7.22156776 7.22156776 7.22156776 7.22156776 7.22156776 7.22156776 7.22156776 7.22156776 7.22156776 7.22156776 7.22156776 7.22156776 7.22156776 7.22156776 7.22156776 7.22156776 7.22156776 7.22156776 7.22156776 7.22156776 7.22156776 7.22156776 7.22156776 7.22156776 7.22156776 7.22156776 7.22156776 7.22156776 7.22156776 7.22156776 7.22156776 7.22156776 7.22156776 7.22156776 7.22156776 7.22156776 7.22156776 7.22156776 7.22156776 7.22156776 7.22156776 7.22156776 7.22156776 7.22156776 7.22156776 7.22156776 7.22156776 7.22156776 7.22156776 7.22156776 7.22156776 7.22156776 7.22156776 7.22156776 7.22156776 7.22156776 7.22156776 7.22156776 7.22156776 7.22156776 7.22156776 7.22156776 7.22156776 7.22156776 7.22156776 7.22156776 7.22156776 7.22156776 7.22156776 7.22156776 7.22156776 7.22156776 7.22156776 7.22156776 7.22156776 7.22156776 7.22156776 7.22156776 7.22156776 7.22156776 7.22156776 7.22156776 7.22156776 7.22156776 7.22156776 7.22156776 7.22156776 7.22156776 7.22156776 7.22156776 7.22156776 7.22156776 7.22156776 7.22156776 7.22156776 7.22156776 7.22156776 7.22156776 7.22156776 7.22156776 7.22156776 7.22156776 7.22156776 7.22156776 7.22156776 7.22156776 7.22156776 7.22156776 7.22156776 7.22156776 7.22156776 7.22156776 7.22156776 7.22156776 7.22156776 7.22156776 7.22156776 7.22156776 7.22156776 7.22156776 7.22156776 7.22156776 7.22156776 7.22156776 7.22156776 7.22156776 7.22156776 7.22156776 7.22156776 7.22156776 7.22156776 7.22156776 7.22156776 7.22156776 7.22156776 7.22156776 7.22156776 7.22156776 7.22156776 7.22156776 7.22156776 7.22156776 7.22156776 7.22156776 7.22156776 7.22156776 7.22156776 7.22156776 7.22156776 7.22156776 7.22156776 7.22156776 7.22156776 7.22156776 7.22156776 7.22156776 7.22156776 7.22156776 7.22156776 7.22156776 7.22156776 7.22156776 7.22156776 7.22156776 7.22156776 7.22156776 7.22156776 7.22156776 7.22156776 7.22156776 7.22156776 7.22156776 7.22156776 7.22156776 7.22156776 7.22156776 7.22156776 7.22156776 7.22156776 7.22156776 7.22156776 7.22156776 7.22156776 7.22156776 7.22156776 7.22156776 7.22156776 7.22156776 7.22156776 7.16457416 7.12647325 7.11696446 7.11696446 7.12647325 7.16457416 7.22156776 7.22156776 7.22156776 7.22156776 7.22156776 7.22156776 7.22156776 7.22156776 7.22156776 7.22156776 7.22156776 7.22156776 7.22156776 7.22156776 7.22156776 7.22156776 7.22156776 7.22156776 7.22156776 7.22156776 7.22156776 7.22156776 7.22156776 7.22156776 7.22156776 7.22156776 7.22156776 7.22156776 7.22156776 7.16552416 7.12937188 7.12650811 7.13474831 7.13865708 7.12398781 7.11597488 7.11974690 7.11974690 7.11597488 7.12398781 7.13865708 7.13474831 7.12650811 7.12937188 7.16552416 7.22156776 7.22156776 7.22156776 7.22156776 7.22156776 7.22156776 7.22156776 7.22156776 7.22156776 7.22156776 7.22156776 7.22156776 7.22156776 7.22156776 7.22156776 7.22156776 7.22156776 7.22156776 7.22156776 7.22156776 7.22156776 7.22156776 7.14752560 7.13008563 7.12177335 7.12375490 7.13861760 7.15172487 7.15985282 7.16404660 7.17102715 7.17785878 7.17785878 7.17102715 7.16404660 7.15985282 7.15172487 7.13861760 7.12375490 7.12177335 7.13008563 7.14752560 7.22156776 7.22156776 7.22156776 7.22156776 7.22156776 7.22156776 7.22156776 7.22156776 7.22156776 7.22156776 7.22156776 7.22156776 7.22156776 7.22156776 7.22156776 7.22156776 7.22156776 7.22156776 7.14871310 7.13115284 7.12209798 7.13938101 7.15904147 7.17582955 7.18907192 7.19598949 7.19995370 7.20378331 7.20828052 7.21119840 7.21119840 7.20828052 7.20378331 7.19995370 7.19598949 7.18907192 7.17582955 7.15904147 7.13938101 7.12209798 7.13115284 7.14871310 7.22156776 7.22156776 7.22156776 7.22156776 7.22156776 7.22156776 7.22156776 7.22156776 7.22156776 7.22156776 7.22156776 7.22156776 7.22156776 7.22156776 7.22156776 7.14817518 7.11744806 7.13601836 7.16302789 7.18667909 7.20111494 7.20972141 7.21441735 7.21617843 7.21710358 7.21824394 7.21945928 7.22009083 7.22009083 7.21945928 7.21824394 7.21710358 7.21617843 7.21441735 7.20972141 7.20111494 7.18667909 7.16302789 7.13601836 7.11744806 7.14817518 7.22156776 7.22156776 7.22156776 7.22156776 7.22156776 7.22156776 7.22156776 7.22156776 7.22156776 7.22156776 7.22156776 7.22156776 7.16579655 7.13174136 7.12366421 7.14755591 7.18049875 7.20225035 7.21309556 7.21761257 7.21971662 7.22061134 7.22085402 7.22097653 7.22117132 7.22136184 7.22143998 7.22143998 7.22136184 7.22117132 7.22097653 7.22085402 7.22061134 7.21971662 7.21761257 7.21309556 7.20225035 7.18049875 7.14755591 7.12366421 7.13174136 7.16579655 7.22156776 7.22156776 7.22156776 7.22156776 7.22156776 7.22156776 7.22156776 7.22156776 7.22156776 7.22156776 7.13166540 7.12321813 7.15593101 7.18992019 7.20968364 7.21769738 7.22032044 7.22109494 7.22139031 7.22148891 7.22150662 7.22151636 7.22153771 7.22155604 7.22156138 7.22156138 7.22155604 7.22153771 7.22151636 7.22150662 7.22148891 7.22139031 7.22109494 7.22032044 7.21769738 7.20968364 7.18992019 7.15593101 7.12321813 7.13166540 7.22156776 7.22156776 7.22156776 7.22156776 7.22156776 7.22156776 7.22156776 7.22156776 7.22156776 7.14696176 7.12305625 7.15578745 7.19297400 7.21260468 7.21936288 7.22108937 7.22145663 7.22153300 7.22155785 7.22156389 7.22156443 7.22156490 7.22156642 7.22156744 7.22156760 7.22156760 7.22156744 7.22156642 7.22156490 7.22156443 7.22156389 7.22155785 7.22153300 7.22145663 7.22108937 7.21936288 7.21260468 7.19297400 7.15578745 7.12305625 7.14696176 7.22156776 7.22156776 7.22156776 7.22156776 7.22156776 7.22156776 7.22156776 7.14385419 7.11203757 7.14509904 7.18932279 7.21252150 7.21978283 7.22130143 7.22153272 7.22156208 7.22156629 7.22156750 7.22156766 7.22156766 7.22156767 7.22156774 7.22156776 7.22156776 7.22156776 7.22156776 7.22156774 7.22156767 7.22156766 7.22156766 7.22156750 7.22156629 7.22156208 7.22153272 7.22130143 7.21978283 7.21252150 7.18932279 7.14509904 7.11203757 7.14385419 7.22156776 7.22156776 7.22156776 7.22156776 7.22156776 7.22156776 7.12302456 7.12337034 7.17440949 7.20819767 7.21915513 7.22128499 7.22154567 7.22156637 7.22156762 7.22156774 7.22156776 7.22156776 7.22156776 7.22156776 7.22156776 7.22156776 7.22156776 7.22156776 7.22156776 7.22156776 7.22156776 7.22156776 7.22156776 7.22156776 7.22156774 7.22156762 7.22156637 7.22154567 7.22128499 7.21915513 7.20819767 7.17440949 7.12337034 7.12302456 7.22156776 7.22156776 7.22156776 7.22156776 7.22156776 7.22156776 7.12393462 7.14321443 7.19214946 7.21522405 7.22072796 7.22149894 7.22156431 7.22156766 7.22156776 7.22156776 7.22156776 7.22156776 7.22156776 7.22156776 7.22156776 7.22156776 7.22156776 7.22156776 7.22156776 7.22156776 7.22156776 7.22156776 7.22156776 7.22156776 7.22156776 7.22156776 7.22156766 7.22156431 7.22149894 7.22072796 7.21522405 7.19214946 7.14321443 7.12393462 7.22156776 7.22156776 7.22156776 7.22156776 7.22156776 7.16776707 7.10839076 7.14868964 7.19808825 7.21716618 7.22105893 7.22153148 7.22156626 7.22156774 7.22156776 7.22156776 7.22156776 7.22156776 7.22156776 7.22156776 7.22156776 7.22156776 7.22156776 7.22156776 7.22156776 7.22156776 7.22156776 7.22156776 7.22156776 7.22156776 7.22156776 7.22156776 7.22156774 7.22156626 7.22153148 7.22105893 7.21716618 7.19808825 7.14868964 7.10839076 7.16776707 7.22156776 7.22156776 7.22156776 7.22156776 7.16776707 7.10839076 7.14868964 7.19808825 7.21716618 7.22105893 7.22153148 7.22156626 7.22156774 7.22156776 7.22156776 7.22156776 7.22156776 7.22156776 7.22156776 7.22156776 7.22156776 7.22156776 7.22156776 7.22156776 7.22156776 7.22156776 7.22156776 7.22156776 7.22156776 7.22156776 7.22156776 7.22156774 7.22156626 7.22153148 7.22105893 7.21716618 7.19808825 7.14868964 7.10839076 7.16776707 7.22156776 7.22156776 7.22156776 7.22156776 7.22156776 7.12393462 7.14321443 7.19214946 7.21522405 7.22072796 7.22149894 7.22156431 7.22156766 7.22156776 7.22156776 7.22156776 7.22156776 7.22156776 7.22156776 7.22156776 7.22156776 7.22156776 7.22156776 7.22156776 7.22156776 7.22156776 7.22156776 7.22156776 7.22156776 7.22156776 7.22156776 7.22156766 7.22156431 7.22149894 7.22072796 7.21522405 7.19214946 7.14321443 7.12393462 7.22156776 7.22156776 7.22156776 7.22156776 7.22156776 7.22156776 7.12302456 7.12337034 7.17440949 7.20819767 7.21915513 7.22128499 7.22154567 7.22156637 7.22156762 7.22156774 7.22156776 7.22156776 7.22156776 7.22156776 7.22156776 7.22156776 7.22156776 7.22156776 7.22156776 7.22156776 7.22156776 7.22156776 7.22156776 7.22156776 7.22156774 7.22156762 7.22156637 7.22154567 7.22128499 7.21915513 7.20819767 7.17440949 7.12337034 7.12302456 7.22156776 7.22156776 7.22156776 7.22156776 7.22156776 7.22156776 7.14385419 7.11203757 7.14509904 7.18932279 7.21252150 7.21978283 7.22130143 7.22153272 7.22156208 7.22156629 7.22156750 7.22156766 7.22156766 7.22156767 7.22156774 7.22156776 7.22156776 7.22156776 7.22156776 7.22156774 7.22156767 7.22156766 7.22156766 7.22156750 7.22156629 7.22156208 7.22153272 7.22130143 7.21978283 7.21252150 7.18932279 7.14509904 7.11203757 7.14385419 7.22156776 7.22156776 7.22156776 7.22156776 7.22156776 7.22156776 7.22156776 7.14696176 7.12305625 7.15578745 7.19297400 7.21260468 7.21936288 7.22108937 7.22145663 7.22153300 7.22155785 7.22156389 7.22156443 7.22156490 7.22156642 7.22156744 7.22156760 7.22156760 7.22156744 7.22156642 7.22156490 7.22156443 7.22156389 7.22155785 7.22153300 7.22145663 7.22108937 7.21936288 7.21260468 7.19297400 7.15578745 7.12305625 7.14696176 7.22156776 7.22156776 7.22156776 7.22156776 7.22156776 7.22156776 7.22156776 7.22156776 7.22156776 7.13166540 7.12321813 7.15593101 7.18992019 7.20968364 7.21769738 7.22032044 7.22109494 7.22139031 7.22148891 7.22150662 7.22151636 7.22153771 7.22155604 7.22156138 7.22156138 7.22155604 7.22153771 7.22151636 7.22150662 7.22148891 7.22139031 7.22109494 7.22032044 7.21769738 7.20968364 7.18992019 7.15593101 7.12321813 7.13166540 7.22156776 7.22156776 7.22156776 7.22156776 7.22156776 7.22156776 7.22156776 7.22156776 7.22156776 7.22156776 7.16579655 7.13174136 7.12366421 7.14755591 7.18049875 7.20225035 7.21309556 7.21761257 7.21971662 7.22061134 7.22085402 7.22097653 7.22117132 7.22136184 7.22143998 7.22143998 7.22136184 7.22117132 7.22097653 7.22085402 7.22061134 7.21971662 7.21761257 7.21309556 7.20225035 7.18049875 7.14755591 7.12366421 7.13174136 7.16579655 7.22156776 7.22156776 7.22156776 7.22156776 7.22156776 7.22156776 7.22156776 7.22156776 7.22156776 7.22156776 7.22156776 7.22156776 7.14817518 7.11744806 7.13601836 7.16302789 7.18667909 7.20111494 7.20972141 7.21441735 7.21617843 7.21710358 7.21824394 7.21945928 7.22009083 7.22009083 7.21945928 7.21824394 7.21710358 7.21617843 7.21441735 7.20972141 7.20111494 7.18667909 7.16302789 7.13601836 7.11744806 7.14817518 7.22156776 7.22156776 7.22156776 7.22156776 7.22156776 7.22156776 7.22156776 7.22156776 7.22156776 7.22156776 7.22156776 7.22156776 7.22156776 7.22156776 7.22156776 7.14871310 7.13115284 7.12209798 7.13938101 7.15904147 7.17582955 7.18907192 7.19598949 7.19995370 7.20378331 7.20828052 7.21119840 7.21119840 7.20828052 7.20378331 7.19995370 7.19598949 7.18907192 7.17582955 7.15904147 7.13938101 7.12209798 7.13115284 7.14871310 7.22156776 7.22156776 7.22156776 7.22156776 7.22156776 7.22156776 7.22156776 7.22156776 7.22156776 7.22156776 7.22156776 7.22156776 7.22156776 7.22156776 7.22156776 7.22156776 7.22156776 7.22156776 7.14752560 7.13008563 7.12177335 7.12375490 7.13861760 7.15172487 7.15985282 7.16404660 7.17102715 7.17785878 7.17785878 7.17102715 7.16404660 7.15985282 7.15172487 7.13861760 7.12375490 7.12177335 7.13008563 7.14752560 7.22156776 7.22156776 7.22156776 7.22156776 7.22156776 7.22156776 7.22156776 7.22156776 7.22156776 7.22156776 7.22156776 7.22156776 7.22156776 7.22156776 7.22156776 7.22156776 7.22156776 7.22156776 7.22156776 7.22156776 7.22156776 7.22156776 7.16552416 7.12937188 7.12650811 7.13474831 7.13865708 7.12398781 7.11597488 7.11974690 7.11974690 7.11597488 7.12398781 7.13865708 7.13474831 7.12650811 7.12937188 7.16552416 7.22156776 7.22156776 7.22156776 7.22156776 7.22156776 7.22156776 7.22156776 7.22156776 7.22156776 7.22156776 7.22156776 7.22156776 7.22156776 7.22156776 7.22156776 7.22156776 7.22156776 7.22156776 7.22156776 7.22156776 7.22156776 7.22156776 7.22156776 7.22156776 7.22156776 7.22156776 7.22156776 7.22156776 7.22156776 7.16457416 7.12647325 7.11696446 7.11696446 7.12647325 7.16457416 7.22156776 7.22156776 7.22156776 7.22156776 7.22156776 7.22156776 7.22156776 7.22156776 7.22156776 7.22156776 7.22156776 7.22156776 7.22156776 7.22156776 7.22156776 7.22156776 7.22156776 7.22156776 7.22156776 7.22156776 7.22156776 7.22156776 7.22156776 7.22156776 7.22156776 7.22156776 7.22156776 7.22156776 7.22156776 7.22156776 7.22156776 7.22156776 7.22156776 7.22156776 7.22156776 7.22156776 7.22156776 7.22156776 7.22156776 7.22156776 7.22156776 7.22156776 7.22156776 7.22156776 7.22156776 7.22156776 7.22156776 7.22156776 7.22156776 7.22156776 7.22156776 7.22156776 7.22156776 7.22156776 7.22156776 7.22156776 7.22156776 7.22156776 7.22156776 7.22156776 7.22156776 7.22156776 7.22156776 7.22156776 7.22156776 7.22156776 7.22156776 7.22156776 7.22156776 7.22156776 7.22156776 7.22156776 7.22156776 7.22156776 7.22156776 7.22156776 7.22156776 7.22156776 7.22156776 7.22156776 7.22156776 7.22156776 7.22156776 7.22156776 7.22156776 7.22156776 7.22156776 7.22156776 7.22156776 7.22156776 7.22156776 7.22156776 7.22156776 7.22156776 7.22156776 7.22156776 7.22156776 7.22156776 7.22156776 7.22156776 7.22156776 7.22156776 7.22156776 7.22156776 7.22156776 7.22156776 7.22156776 7.22156776 7.22156776 7.22156776 7.22156776 7.22156776 7.22156776 7.22156776 7.22156776 7.22156776 7.22156776 7.22156776 7.22156776 7.22156776 7.22156776 7.22156776 7.22156776 7.22156776 7.22156776 7.22156776 7.22156776 7.22156776 7.22156776 7.22156776 7.22156776 7.22156776 7.22156776 7.22156776 7.22156776 7.22156776 7.22156776 7.22156776 7.22156776 7.22156776 7.22156776 7.22156776 7.22156776 7.22156776 7.22156776 7.22156776 7.22156776 7.22156776 7.22156776 7.22156776 7.22156776 7.22156776 7.22156776 7.22156776 7.22156776 7.22156776 7.22156776 7.22156776 7.22156776 7.22156776 7.22156776 7.22156776 7.22156776 7.22156776 7.22156776 7.22156776 7.22156776 7.22156776 7.22156776 7.22156776 7.22156776 7.22156776 7.22156776 7.22156776 7.22156776 7.22156776 7.22156776 7.22156776 7.22156776 7.22156776 7.22156776 7.22156776 7.22156776 7.22156776 7.22156776 7.22156776 7.22156776 7.22156776 7.22156776 7.22156776 7.22156776 7.22156776 7.22156776 7.22156776 7.22156776 7.22156776 7.22156776 7.22156776 7.22156776 7.22156776 7.22156776 7.22156776 7.22156776 7.22156776 7.22156776 7.22156776 7.22156776 7.22156776 7.22156776 7.22156776 7.22156776 7.22156776 7.22156776 7.22156776 7.22156776 7.22156776 7.22156776 7.22156776 7.22156776 7.22156776 7.22156776 7.22156776 7.22156776 7.22156776 7.22156776 7.22156776 7.22156776 7.22156776 7.22156776 7.22156776 7.22156776 7.22156776 7.22156776 7.22156776 7.22156776 7.22156776 7.22156776 7.22156776 7.22156776 7.22156776 7.22156776 7.22156776 7.22156776 7.22156776 7.22156776 7.22156776 7.22156776 7.22156776 7.22156776 7.22156776 7.22156776 7.22156776 7.22156776 7.22156776 7.22156776 7.22156776 7.22156776 7.22156776 7.22156776 7.22156776 7.22156776 7.22156776 7.22156776 7.22156776 7.22156776 7.22156776 7.22156776 7.22156776 7.22156776 7.22156776 7.22156776 7.22156776 7.22156776 7.22156776 7.22156776 7.22156776 7.22156776 7.22156776 7.22156776 7.22156776 7.22156776 7.22156776 7.22156776 7.22156776 7.22156776 7.22156776 7.22156776 7.22156776 7.22156776 7.22156776 7.22156776 7.22156776 7.22156776 7.22156776 7.22156776 7.22156776 7.22156776 7.22156776 7.22156776 7.22156776 7.22156776 7.22156776 7.22156776 7.22156776 7.22156776 7.22156776 7.22156776 7.22156776 7.22156776 7.22156776 7.22156776 7.22156776 7.22156776 7.22156776 7.22156776 7.22156776 7.22156776 7.22156776 7.22156776 7.22156776 7.22156776 7.22156776 7.22156776 7.22156776 7.22156776 7.22156776 7.22156776 7.22156776 7.22156776 7.22156776 7.22156776 7.22156776 7.22156776 7.22156776 7.22156776 7.22156776 7.22156776 