# vtk DataFile Version 3.0
VTK - Matlab export
ASCII
DATASET STRUCTURED_POINTS
DIMENSIONS 40 40 1
SPACING 1 1 1
ORIGIN 0 0 0
POINT_DATA 1600
SCALARS Proofstrength float 1
LOOKUP_TABLE default
142.25514280 142.25514280 142.25514280 142.25514280 142.25514280 142.25514280 142.25514280 142.25514280 142.25514280 142.25514280 142.25514280 142.25514280 142.25514280 142.25514280 142.25514280 142.25514280 142.25514280 142.25514280 142.25514280 142.25514280 142.25514280 142.25514280 142.25514280 142.25514280 142.25514280 142.25514280 142.25514280 142.25514280 142.25514280 142.25514280 142.25514280 142.25514280 142.25514280 142.25514280 142.25514280 142.25514280 142.25514280 142.25514280 142.25514280 142.25514280 142.25514280 142.25514280 142.25514280 142.25514280 142.25514280 142.25514280 142.25514280 142.25514280 142.25514280 142.25514280 142.25514280 142.25514280 142.25514280 142.25514280 142.25514280 142.25514280 142.25514280 142.25514280 142.25514280 142.25514280 142.25514280 142.25514280 142.25514280 142.25514280 142.25514280 142.25514280 142.25514280 142.25514280 142.25514280 142.25514280 142.25514280 142.25514280 142.25514280 142.25514280 142.25514280 142.25514280 142.25514280 142.25514280 142.25514280 142.25514280 142.25514280 142.25514280 142.25514280 142.25514280 142.25514280 142.25514280 142.25514280 142.25514280 142.25514280 142.25514280 142.25514280 142.25514280 142.25514280 142.25514280 142.25514280 142.25514280 142.25514280 142.25514280 142.25514280 142.25514280 142.25514280 142.25514280 142.25514280 142.25514280 142.25514280 142.25514280 142.25514280 142.25514280 142.25514280 142.25514280 142.25514280 142.25514280 142.25514280 142.25514280 142.25514280 142.25514280 142.25514280 142.25514280 142.25514280 142.25514280 142.25514280 142.25514280 142.25514280 142.25514280 142.25514280 142.25514280 142.25514280 142.25514280 142.25514280 142.25514280 142.25514280 142.25514280 142.25514280 142.25514280 142.25514280 142.25514280 142.25514280 142.25514280 142.25514280 142.25514280 142.25514280 142.25514280 142.25514280 142.25514280 142.25514280 142.25514280 142.25514280 142.25514280 142.25514280 142.25514280 142.25514280 142.25514280 142.25514280 142.25514280 142.25514280 142.25514280 142.25514280 142.25514280 142.25514280 142.25514280 142.25514280 142.25514280 142.25514280 142.25514280 142.25514280 142.25514280 142.25514280 142.25514280 142.25514280 142.25514280 142.25514280 142.25514280 142.25514280 142.25514280 142.25514280 142.25514280 142.25514280 142.25514280 142.25514280 142.25514280 142.25514280 142.25514280 142.25514280 142.25514280 142.25514280 142.25514280 142.25514280 142.25514280 142.25514280 142.25514280 142.25514280 142.25514280 142.25514280 142.25514280 142.25514280 142.25514280 142.25514280 142.25514280 142.25514280 142.25514280 142.25514280 142.25514280 142.25514280 142.25514280 142.25514280 142.25514280 142.25514280 142.25514280 142.25514280 142.25514280 142.25514280 142.25514280 142.25514280 142.25514280 142.25514280 142.25514280 142.25514280 142.25514280 142.25514280 142.25514280 142.25514280 142.25514280 142.25514280 142.25514280 142.25514280 142.25514280 142.25514280 142.25514280 142.25514280 142.25514280 142.25514280 142.25514280 142.25514280 142.25514280 142.25514280 142.25514280 142.25514280 142.25514280 142.25514280 142.25514280 142.25514280 142.25514280 142.25514280 142.25514280 142.25514280 142.25514280 142.25514280 142.25514280 142.25514280 142.25514280 142.25514280 142.25514280 142.25514280 142.25514280 142.25514280 142.25514280 142.25514280 142.25514280 142.25514280 142.25514280 142.25514280 142.25514280 142.25514280 142.25514280 142.25514280 142.25514280 142.25514280 142.25514280 142.25514280 142.25514280 142.25514280 142.25514280 142.25514280 142.25514280 142.25514280 142.25514280 142.25514280 142.25514280 142.25514280 142.25514280 142.25514280 142.25514280 142.25514280 142.25514280 142.25514280 142.25514280 142.25514280 142.25514280 142.25514280 142.25514280 142.25514280 142.25514280 142.25514280 142.25514280 142.25514280 142.25514280 142.25514280 142.25514280 142.25514280 142.25514280 142.25514280 142.25514280 142.25514280 142.25514280 142.25514280 142.25514280 142.25514280 142.25514280 142.25514280 142.25514280 142.25514280 142.25514280 142.25514280 142.25514280 142.25514280 142.25514280 142.25514280 142.25514280 142.25514280 142.25514280 142.25514280 142.25514280 142.25514280 142.25514280 142.25514280 142.25514280 142.25514280 142.25514280 142.25514280 142.25514280 142.25514280 142.25514280 142.25514280 142.25514280 142.25514280 142.25514280 142.25514280 142.25632435 142.25695884 142.25719039 142.25719039 142.25695884 142.25632435 142.25514280 142.25514280 142.25514280 142.25514280 142.25514280 142.25514280 142.25514280 142.25514280 142.25514280 142.25514280 142.25514280 142.25514280 142.25514280 142.25514280 142.25514280 142.25514280 142.25514280 142.25514280 142.25514280 142.25514280 142.25514280 142.25514280 142.25514280 142.25514280 142.25514280 142.25514280 142.25514280 142.25514280 142.25514280 142.25638931 142.25732106 142.25788528 142.25826098 142.25859997 142.25915370 142.25960107 142.25981606 142.25981606 142.25960107 142.25915370 142.25859997 142.25826098 142.25788528 142.25732106 142.25638931 142.25514280 142.25514280 142.25514280 142.25514280 142.25514280 142.25514280 142.25514280 142.25514280 142.25514280 142.25514280 142.25514280 142.25514280 142.25514280 142.25514280 142.25514280 142.25514280 142.25514280 142.25514280 142.25514280 142.25514280 142.25514280 142.25514280 142.25699273 142.25804425 142.25910668 142.26007364 142.26080841 142.26135170 142.26178836 142.26219657 142.26251451 142.26267976 142.26267976 142.26251451 142.26219657 142.26178836 142.26135170 142.26080841 142.26007364 142.25910668 142.25804425 142.25699273 142.25514280 142.25514280 142.25514280 142.25514280 142.25514280 142.25514280 142.25514280 142.25514280 142.25514280 142.25514280 142.25514280 142.25514280 142.25514280 142.25514280 142.25514280 142.25514280 142.25514280 142.25514280 142.25685941 142.25812963 142.25964867 142.26092160 142.26202852 142.26297561 142.26372356 142.26428935 142.26471972 142.26505484 142.26529215 142.26541431 142.26541431 142.26529215 142.26505484 142.26471972 142.26428935 142.26372356 142.26297561 142.26202852 142.26092160 142.25964867 142.25812963 142.25685941 142.25514280 142.25514280 142.25514280 142.25514280 142.25514280 142.25514280 142.25514280 142.25514280 142.25514280 142.25514280 142.25514280 142.25514280 142.25514280 142.25514280 142.25514280 142.25731125 142.25921046 142.26087776 142.26242963 142.26375592 142.26485276 142.26573322 142.26640582 142.26689835 142.26725126 142.26750021 142.26766264 142.26774318 142.26774318 142.26766264 142.26750021 142.26725126 142.26689835 142.26640582 142.26573322 142.26485276 142.26375592 142.26242963 142.26087776 142.25921046 142.25731125 142.25514280 142.25514280 142.25514280 142.25514280 142.25514280 142.25514280 142.25514280 142.25514280 142.25514280 142.25514280 142.25514280 142.25514280 142.25618091 142.25771850 142.25975870 142.26174987 142.26354746 142.26511230 142.26639837 142.26740331 142.26815129 142.26867763 142.26902735 142.26924866 142.26938328 142.26945986 142.26949454 142.26949454 142.26945986 142.26938328 142.26924866 142.26902735 142.26867763 142.26815129 142.26740331 142.26639837 142.26511230 142.26354746 142.26174987 142.25975870 142.25771850 142.25618091 142.25514280 142.25514280 142.25514280 142.25514280 142.25514280 142.25514280 142.25514280 142.25514280 142.25514280 142.25514280 142.25765568 142.25989616 142.26212274 142.26420423 142.26603126 142.26754322 142.26871369 142.26955552 142.27011047 142.27043576 142.27059448 142.27064721 142.27064474 142.27062408 142.27060829 142.27060829 142.27062408 142.27064474 142.27064721 142.27059448 142.27043576 142.27011047 142.26955552 142.26871369 142.26754322 142.26603126 142.26420423 142.26212274 142.25989616 142.25765568 142.25514280 142.25514280 142.25514280 142.25514280 142.25514280 142.25514280 142.25514280 142.25514280 142.25514280 142.25711383 142.25950225 142.26193943 142.26429015 142.26641572 142.26820949 142.26961265 142.27061396 142.27124504 142.27156815 142.27166118 142.27160468 142.27147200 142.27132287 142.27120076 142.27113314 142.27113314 142.27120076 142.27132287 142.27147200 142.27160468 142.27166118 142.27156815 142.27124504 142.27061396 142.26961265 142.26820949 142.26641572 142.26429015 142.26193943 142.25950225 142.25711383 142.25514280 142.25514280 142.25514280 142.25514280 142.25514280 142.25514280 142.25514280 142.25652989 142.25866039 142.26115673 142.26372080 142.26614660 142.26827489 142.26999650 142.27125931 142.27206724 142.27247126 142.27255404 142.27241254 142.27214289 142.27182967 142.27154004 142.27132207 142.27120591 142.27120591 142.27132207 142.27154004 142.27182967 142.27214289 142.27241254 142.27255404 142.27247126 142.27206724 142.27125931 142.26999650 142.26827489 142.26614660 142.26372080 142.26115673 142.25866039 142.25652989 142.25514280 142.25514280 142.25514280 142.25514280 142.25514280 142.25514280 142.25731105 142.25978347 142.26245817 142.26513085 142.26760222 142.26970978 142.27134585 142.27246658 142.27309014 142.27328494 142.27315152 142.27280282 142.27234761 142.27187921 142.27147015 142.27117144 142.27101464 142.27101464 142.27117144 142.27147015 142.27187921 142.27234761 142.27280282 142.27315152 142.27328494 142.27309014 142.27246658 142.27134585 142.26970978 142.26760222 142.26513085 142.26245817 142.25978347 142.25731105 142.25514280 142.25514280 142.25514280 142.25514280 142.25514280 142.25514280 142.25781108 142.26053626 142.26335247 142.26610278 142.26859892 142.27068025 142.27224229 142.27324853 142.27372831 142.27376330 142.27346723 142.27296458 142.27237291 142.27179142 142.27129600 142.27093928 142.27075340 142.27075340 142.27093928 142.27129600 142.27179142 142.27237291 142.27296458 142.27346723 142.27376330 142.27372831 142.27324853 142.27224229 142.27068025 142.26859892 142.26610278 142.26335247 142.26053626 142.25781108 142.25514280 142.25514280 142.25514280 142.25514280 142.25514280 142.25593233 142.25821531 142.26094654 142.26381341 142.26659880 142.26910445 142.27116842 142.27268787 142.27363044 142.27403163 142.27398023 142.27359702 142.27301248 142.27234868 142.27170774 142.27116715 142.27078018 142.27057918 142.27057918 142.27078018 142.27116715 142.27170774 142.27234868 142.27301248 142.27359702 142.27398023 142.27403163 142.27363044 142.27268787 142.27116842 142.26910445 142.26659880 142.26381341 142.26094654 142.25821531 142.25593233 142.25514280 142.25514280 142.25514280 142.25514280 142.25593233 142.25821531 142.26094654 142.26381341 142.26659880 142.26910445 142.27116842 142.27268787 142.27363044 142.27403163 142.27398023 142.27359702 142.27301248 142.27234868 142.27170774 142.27116715 142.27078018 142.27057918 142.27057918 142.27078018 142.27116715 142.27170774 142.27234868 142.27301248 142.27359702 142.27398023 142.27403163 142.27363044 142.27268787 142.27116842 142.26910445 142.26659880 142.26381341 142.26094654 142.25821531 142.25593233 142.25514280 142.25514280 142.25514280 142.25514280 142.25514280 142.25781108 142.26053626 142.26335247 142.26610278 142.26859892 142.27068025 142.27224229 142.27324853 142.27372831 142.27376330 142.27346723 142.27296458 142.27237291 142.27179142 142.27129600 142.27093928 142.27075340 142.27075340 142.27093928 142.27129600 142.27179142 142.27237291 142.27296458 142.27346723 142.27376330 142.27372831 142.27324853 142.27224229 142.27068025 142.26859892 142.26610278 142.26335247 142.26053626 142.25781108 142.25514280 142.25514280 142.25514280 142.25514280 142.25514280 142.25514280 142.25731105 142.25978347 142.26245817 142.26513085 142.26760222 142.26970978 142.27134585 142.27246658 142.27309014 142.27328494 142.27315152 142.27280282 142.27234761 142.27187921 142.27147015 142.27117144 142.27101464 142.27101464 142.27117144 142.27147015 142.27187921 142.27234761 142.27280282 142.27315152 142.27328494 142.27309014 142.27246658 142.27134585 142.26970978 142.26760222 142.26513085 142.26245817 142.25978347 142.25731105 142.25514280 142.25514280 142.25514280 142.25514280 142.25514280 142.25514280 142.25652989 142.25866039 142.26115673 142.26372080 142.26614660 142.26827489 142.26999650 142.27125931 142.27206724 142.27247126 142.27255404 142.27241254 142.27214289 142.27182967 142.27154004 142.27132207 142.27120591 142.27120591 142.27132207 142.27154004 142.27182967 142.27214289 142.27241254 142.27255404 142.27247126 142.27206724 142.27125931 142.26999650 142.26827489 142.26614660 142.26372080 142.26115673 142.25866039 142.25652989 142.25514280 142.25514280 142.25514280 142.25514280 142.25514280 142.25514280 142.25514280 142.25711383 142.25950225 142.26193943 142.26429015 142.26641572 142.26820949 142.26961265 142.27061396 142.27124504 142.27156815 142.27166118 142.27160468 142.27147200 142.27132287 142.27120076 142.27113314 142.27113314 142.27120076 142.27132287 142.27147200 142.27160468 142.27166118 142.27156815 142.27124504 142.27061396 142.26961265 142.26820949 142.26641572 142.26429015 142.26193943 142.25950225 142.25711383 142.25514280 142.25514280 142.25514280 142.25514280 142.25514280 142.25514280 142.25514280 142.25514280 142.25514280 142.25765568 142.25989616 142.26212274 142.26420423 142.26603126 142.26754322 142.26871369 142.26955552 142.27011047 142.27043576 142.27059448 142.27064721 142.27064474 142.27062408 142.27060829 142.27060829 142.27062408 142.27064474 142.27064721 142.27059448 142.27043576 142.27011047 142.26955552 142.26871369 142.26754322 142.26603126 142.26420423 142.26212274 142.25989616 142.25765568 142.25514280 142.25514280 142.25514280 142.25514280 142.25514280 142.25514280 142.25514280 142.25514280 142.25514280 142.25514280 142.25618091 142.25771850 142.25975870 142.26174987 142.26354746 142.26511230 142.26639837 142.26740331 142.26815129 142.26867763 142.26902735 142.26924866 142.26938328 142.26945986 142.26949454 142.26949454 142.26945986 142.26938328 142.26924866 142.26902735 142.26867763 142.26815129 142.26740331 142.26639837 142.26511230 142.26354746 142.26174987 142.25975870 142.25771850 142.25618091 142.25514280 142.25514280 142.25514280 142.25514280 142.25514280 142.25514280 142.25514280 142.25514280 142.25514280 142.25514280 142.25514280 142.25514280 142.25731125 142.25921046 142.26087776 142.26242963 142.26375592 142.26485276 142.26573322 142.26640582 142.26689835 142.26725126 142.26750021 142.26766264 142.26774318 142.26774318 142.26766264 142.26750021 142.26725126 142.26689835 142.26640582 142.26573322 142.26485276 142.26375592 142.26242963 142.26087776 142.25921046 142.25731125 142.25514280 142.25514280 142.25514280 142.25514280 142.25514280 142.25514280 142.25514280 142.25514280 142.25514280 142.25514280 142.25514280 142.25514280 142.25514280 142.25514280 142.25514280 142.25685941 142.25812963 142.25964867 142.26092160 142.26202852 142.26297561 142.26372356 142.26428935 142.26471972 142.26505484 142.26529215 142.26541431 142.26541431 142.26529215 142.26505484 142.26471972 142.26428935 142.26372356 142.26297561 142.26202852 142.26092160 142.25964867 142.25812963 142.25685941 142.25514280 142.25514280 142.25514280 142.25514280 142.25514280 142.25514280 142.25514280 142.25514280 142.25514280 142.25514280 142.25514280 142.25514280 142.25514280 142.25514280 142.25514280 142.25514280 142.25514280 142.25514280 142.25699273 142.25804425 142.25910668 142.26007364 142.26080841 142.26135170 142.26178836 142.26219657 142.26251451 142.26267976 142.26267976 142.26251451 142.26219657 142.26178836 142.26135170 142.26080841 142.26007364 142.25910668 142.25804425 142.25699273 142.25514280 142.25514280 142.25514280 142.25514280 142.25514280 142.25514280 142.25514280 142.25514280 142.25514280 142.25514280 142.25514280 142.25514280 142.25514280 142.25514280 142.25514280 142.25514280 142.25514280 142.25514280 142.25514280 142.25514280 142.25514280 142.25514280 142.25638931 142.25732106 142.25788528 142.25826098 142.25859997 142.25915370 142.25960107 142.25981606 142.25981606 142.25960107 142.25915370 142.25859997 142.25826098 142.25788528 142.25732106 142.25638931 142.25514280 142.25514280 142.25514280 142.25514280 142.25514280 142.25514280 142.25514280 142.25514280 142.25514280 142.25514280 142.25514280 142.25514280 142.25514280 142.25514280 142.25514280 142.25514280 142.25514280 142.25514280 142.25514280 142.25514280 142.25514280 142.25514280 142.25514280 142.25514280 142.25514280 142.25514280 142.25514280 142.25514280 142.25514280 142.25632435 142.25695884 142.25719039 142.25719039 142.25695884 142.25632435 142.25514280 142.25514280 142.25514280 142.25514280 142.25514280 142.25514280 142.25514280 142.25514280 142.25514280 142.25514280 142.25514280 142.25514280 142.25514280 142.25514280 142.25514280 142.25514280 142.25514280 142.25514280 142.25514280 142.25514280 142.25514280 142.25514280 142.25514280 142.25514280 142.25514280 142.25514280 142.25514280 142.25514280 142.25514280 142.25514280 142.25514280 142.25514280 142.25514280 142.25514280 142.25514280 142.25514280 142.25514280 142.25514280 142.25514280 142.25514280 142.25514280 142.25514280 142.25514280 142.25514280 142.25514280 142.25514280 142.25514280 142.25514280 142.25514280 142.25514280 142.25514280 142.25514280 142.25514280 142.25514280 142.25514280 142.25514280 142.25514280 142.25514280 142.25514280 142.25514280 142.25514280 142.25514280 142.25514280 142.25514280 142.25514280 142.25514280 142.25514280 142.25514280 142.25514280 142.25514280 142.25514280 142.25514280 142.25514280 142.25514280 142.25514280 142.25514280 142.25514280 142.25514280 142.25514280 142.25514280 142.25514280 142.25514280 142.25514280 142.25514280 142.25514280 142.25514280 142.25514280 142.25514280 142.25514280 142.25514280 142.25514280 142.25514280 142.25514280 142.25514280 142.25514280 142.25514280 142.25514280 142.25514280 142.25514280 142.25514280 142.25514280 142.25514280 142.25514280 142.25514280 142.25514280 142.25514280 142.25514280 142.25514280 142.25514280 142.25514280 142.25514280 142.25514280 142.25514280 142.25514280 142.25514280 142.25514280 142.25514280 142.25514280 142.25514280 142.25514280 142.25514280 142.25514280 142.25514280 142.25514280 142.25514280 142.25514280 142.25514280 142.25514280 142.25514280 142.25514280 142.25514280 142.25514280 142.25514280 142.25514280 142.25514280 142.25514280 142.25514280 142.25514280 142.25514280 142.25514280 142.25514280 142.25514280 142.25514280 142.25514280 142.25514280 142.25514280 142.25514280 142.25514280 142.25514280 142.25514280 142.25514280 142.25514280 142.25514280 142.25514280 142.25514280 142.25514280 142.25514280 142.25514280 142.25514280 142.25514280 142.25514280 142.25514280 142.25514280 142.25514280 142.25514280 142.25514280 142.25514280 142.25514280 142.25514280 142.25514280 142.25514280 142.25514280 142.25514280 142.25514280 142.25514280 142.25514280 142.25514280 142.25514280 142.25514280 142.25514280 142.25514280 142.25514280 142.25514280 142.25514280 142.25514280 142.25514280 142.25514280 142.25514280 142.25514280 142.25514280 142.25514280 142.25514280 142.25514280 142.25514280 142.25514280 142.25514280 142.25514280 142.25514280 142.25514280 142.25514280 142.25514280 142.25514280 142.25514280 142.25514280 142.25514280 142.25514280 142.25514280 142.25514280 142.25514280 142.25514280 142.25514280 142.25514280 142.25514280 142.25514280 142.25514280 142.25514280 142.25514280 142.25514280 142.25514280 142.25514280 142.25514280 142.25514280 142.25514280 142.25514280 142.25514280 142.25514280 142.25514280 142.25514280 142.25514280 142.25514280 142.25514280 142.25514280 142.25514280 142.25514280 142.25514280 142.25514280 142.25514280 142.25514280 142.25514280 142.25514280 142.25514280 142.25514280 142.25514280 142.25514280 142.25514280 142.25514280 142.25514280 142.25514280 142.25514280 142.25514280 142.25514280 142.25514280 142.25514280 142.25514280 142.25514280 142.25514280 142.25514280 142.25514280 142.25514280 142.25514280 142.25514280 142.25514280 142.25514280 142.25514280 142.25514280 142.25514280 142.25514280 142.25514280 142.25514280 142.25514280 142.25514280 142.25514280 142.25514280 142.25514280 142.25514280 142.25514280 142.25514280 142.25514280 142.25514280 142.25514280 142.25514280 142.25514280 142.25514280 142.25514280 142.25514280 142.25514280 142.25514280 142.25514280 142.25514280 142.25514280 142.25514280 142.25514280 142.25514280 142.25514280 142.25514280 142.25514280 142.25514280 142.25514280 142.25514280 142.25514280 142.25514280 142.25514280 142.25514280 142.25514280 142.25514280 142.25514280 142.25514280 142.25514280 142.25514280 142.25514280 142.25514280 142.25514280 142.25514280 142.25514280 142.25514280 142.25514280 142.25514280 142.25514280 142.25514280 142.25514280 142.25514280 142.25514280 142.25514280 142.25514280 142.25514280 142.25514280 142.25514280 142.25514280 142.25514280 142.25514280 142.25514280 142.25514280 142.25514280 142.25514280 142.25514280 142.25514280 142.25514280 