# vtk DataFile Version 3.0
VTK - Matlab export
ASCII
DATASET STRUCTURED_POINTS
DIMENSIONS 40 40 1
SPACING 1 1 1
ORIGIN 0 0 0
POINT_DATA 1600
SCALARS Proofstrength float 1
LOOKUP_TABLE default
142.25514280 142.25514280 142.25514280 142.25514280 142.25514280 142.25514280 142.25514280 142.25514280 142.25514280 142.25514280 142.25514280 142.25514280 142.25514280 142.25514280 142.25514280 142.25514280 142.25514280 142.25514280 142.25514280 142.25514280 142.25514280 142.25514280 142.25514280 142.25514280 142.25514280 142.25514280 142.25514280 142.25514280 142.25514280 142.25514280 142.25514280 142.25514280 142.25514280 142.25514280 142.25514280 142.25514280 142.25514280 142.25514280 142.25514280 142.25514280 142.25514280 142.25514280 142.25514280 142.25514280 142.25514280 142.25514280 142.25514280 142.25514280 142.25514280 142.25514280 142.25514280 142.25514280 142.25514280 142.25514280 142.25514280 142.25514280 142.25514280 142.25514280 142.25514280 142.25514280 142.25514280 142.25514280 142.25514280 142.25514280 142.25514280 142.25514280 142.25514280 142.25514280 142.25514280 142.25514280 142.25514280 142.25514280 142.25514280 142.25514280 142.25514280 142.25514280 142.25514280 142.25514280 142.25514280 142.25514280 142.25514280 142.25514280 142.25514280 142.25514280 142.25514280 142.25514280 142.25514280 142.25514280 142.25514280 142.25514280 142.25514280 142.25514280 142.25514280 142.25514280 142.25514280 142.25514280 142.25514280 142.25514280 142.25514280 142.25514280 142.25514280 142.25514280 142.25514280 142.25514280 142.25514280 142.25514280 142.25514280 142.25514280 142.25514280 142.25514280 142.25514280 142.25514280 142.25514280 142.25514280 142.25514280 142.25514280 142.25514280 142.25514280 142.25514280 142.25514280 142.25514280 142.25514280 142.25514280 142.25514280 142.25514280 142.25514280 142.25514280 142.25514280 142.25514280 142.25514280 142.25514280 142.25514280 142.25514280 142.25514280 142.25514280 142.25514280 142.25514280 142.25514280 142.25514280 142.25514280 142.25514280 142.25514280 142.25514280 142.25514280 142.25514280 142.25514280 142.25514280 142.25514280 142.25514280 142.25514280 142.25514280 142.25514280 142.25514280 142.25514280 142.25514280 142.25514280 142.25514280 142.25514280 142.25514280 142.25514280 142.25514280 142.25514280 142.25514280 142.25514280 142.25514280 142.25514280 142.25514280 142.25514280 142.25514280 142.25514280 142.25514280 142.25514280 142.25514280 142.25514280 142.25514280 142.25514280 142.25514280 142.25514280 142.25514280 142.25514280 142.25514280 142.25514280 142.25514280 142.25514280 142.25514280 142.25514280 142.25514280 142.25514280 142.25514280 142.25514280 142.25514280 142.25514280 142.25514280 142.25514280 142.25514280 142.25514280 142.25514280 142.25514280 142.25514280 142.25514280 142.25514280 142.25514280 142.25514280 142.25514280 142.25514280 142.25514280 142.25514280 142.25514280 142.25514280 142.25514280 142.25514280 142.25514280 142.25514280 142.25514280 142.25514280 142.25514280 142.25514280 142.25514280 142.25514280 142.25514280 142.25514280 142.25514280 142.25514280 142.25514280 142.25514280 142.25514280 142.25514280 142.25514280 142.25514280 142.25514280 142.25514280 142.25514280 142.25514280 142.25514280 142.25514280 142.25514280 142.25514280 142.25514280 142.25514280 142.25514280 142.25514280 142.25514280 142.25514280 142.25514280 142.25514280 142.25514280 142.25514280 142.25514280 142.25514280 142.25514280 142.25514280 142.25514280 142.25514280 142.25514280 142.25514280 142.25514280 142.25514280 142.25514280 142.25514280 142.25514280 142.25514280 142.25514280 142.25514280 142.25514280 142.25514280 142.25514280 142.25514280 142.25514280 142.25514280 142.25514280 142.25514280 142.25514280 142.25514280 142.25514280 142.25514280 142.25514280 142.25514280 142.25514280 142.25514280 142.25514280 142.25514280 142.25514280 142.25514280 142.25514280 142.25514280 142.25514280 142.25514280 142.25514280 142.25514280 142.25514280 142.25514280 142.25514280 142.25514280 142.25514280 142.25514280 142.25514280 142.25514280 142.25514280 142.25514280 142.25514280 142.25514280 142.25514280 142.25514280 142.25514280 142.25514280 142.25514280 142.25514280 142.25514280 142.25514280 142.25514280 142.25514280 142.25514280 142.25514280 142.25514280 142.25514280 142.25514280 142.25514280 142.25514280 142.25514280 142.25514280 142.25514280 142.25514280 142.25514280 142.25514280 142.25514280 142.25514280 142.25514280 142.25514280 142.25514280 142.25514280 142.25514280 142.25514280 142.25514280 142.25514280 142.25514280 142.25514280 142.25514280 142.25940699 142.26181069 142.26272097 142.26272097 142.26181069 142.25940699 142.25514280 142.25514280 142.25514280 142.25514280 142.25514280 142.25514280 142.25514280 142.25514280 142.25514280 142.25514280 142.25514280 142.25514280 142.25514280 142.25514280 142.25514280 142.25514280 142.25514280 142.25514280 142.25514280 142.25514280 142.25514280 142.25514280 142.25514280 142.25514280 142.25514280 142.25514280 142.25514280 142.25514280 142.25514280 142.25964280 142.26298281 142.26487928 142.26601584 142.26704029 142.26896688 142.27061412 142.27142831 142.27142831 142.27061412 142.26896688 142.26704029 142.26601584 142.26487928 142.26298281 142.25964280 142.25514280 142.25514280 142.25514280 142.25514280 142.25514280 142.25514280 142.25514280 142.25514280 142.25514280 142.25514280 142.25514280 142.25514280 142.25514280 142.25514280 142.25514280 142.25514280 142.25514280 142.25514280 142.25514280 142.25514280 142.25514280 142.25514280 142.26179635 142.26541074 142.26891721 142.27194567 142.27399092 142.27527989 142.27625310 142.27730550 142.27822218 142.27872191 142.27872191 142.27822218 142.27730550 142.27625310 142.27527989 142.27399092 142.27194567 142.26891721 142.26541074 142.26179635 142.25514280 142.25514280 142.25514280 142.25514280 142.25514280 142.25514280 142.25514280 142.25514280 142.25514280 142.25514280 142.25514280 142.25514280 142.25514280 142.25514280 142.25514280 142.25514280 142.25514280 142.25514280 142.26135274 142.26568336 142.27064438 142.27435185 142.27717373 142.27925086 142.28054125 142.28123202 142.28162814 142.28197305 142.28228067 142.28246042 142.28246042 142.28228067 142.28197305 142.28162814 142.28123202 142.28054125 142.27925086 142.27717373 142.27435185 142.27064438 142.26568336 142.26135274 142.25514280 142.25514280 142.25514280 142.25514280 142.25514280 142.25514280 142.25514280 142.25514280 142.25514280 142.25514280 142.25514280 142.25514280 142.25514280 142.25514280 142.25514280 142.26297417 142.26937337 142.27429424 142.27821618 142.28085271 142.28239954 142.28312741 142.28324498 142.28299141 142.28261438 142.28229573 142.28209894 142.28201081 142.28201081 142.28209894 142.28229573 142.28261438 142.28299141 142.28324498 142.28312741 142.28239954 142.28085271 142.27821618 142.27429424 142.26937337 142.26297417 142.25514280 142.25514280 142.25514280 142.25514280 142.25514280 142.25514280 142.25514280 142.25514280 142.25514280 142.25514280 142.25514280 142.25514280 142.25914687 142.26467748 142.27137065 142.27691735 142.28079017 142.28309787 142.28402391 142.28392411 142.28318038 142.28210413 142.28094424 142.27989196 142.27906885 142.27852300 142.27825504 142.27825504 142.27852300 142.27906885 142.27989196 142.28094424 142.28210413 142.28318038 142.28392411 142.28402391 142.28309787 142.28079017 142.27691735 142.27137065 142.26467748 142.25914687 142.25514280 142.25514280 142.25514280 142.25514280 142.25514280 142.25514280 142.25514280 142.25514280 142.25514280 142.25514280 142.26478175 142.27235530 142.27845920 142.28256569 142.28459219 142.28487237 142.28389981 142.28219718 142.28020416 142.27822860 142.27646296 142.27501600 142.27393601 142.27322947 142.27288263 142.27288263 142.27322947 142.27393601 142.27501600 142.27646296 142.27822860 142.28020416 142.28219718 142.28389981 142.28487237 142.28459219 142.28256569 142.27845920 142.27235530 142.26478175 142.25514280 142.25514280 142.25514280 142.25514280 142.25514280 142.25514280 142.25514280 142.25514280 142.25514280 142.26310334 142.27175183 142.27888914 142.28368088 142.28586111 142.28574205 142.28399185 142.28134538 142.27841631 142.27561952 142.27318002 142.27118749 142.26965377 142.26855357 142.26784929 142.26750696 142.26750696 142.26784929 142.26855357 142.26965377 142.27118749 142.27318002 142.27561952 142.27841631 142.28134538 142.28399185 142.28574205 142.28586111 142.28368088 142.27888914 142.27175183 142.26310334 142.25514280 142.25514280 142.25514280 142.25514280 142.25514280 142.25514280 142.25514280 142.26106985 142.26943536 142.27766616 142.28379664 142.28691531 142.28705146 142.28491086 142.28146986 142.27761542 142.27396063 142.27082580 142.26831130 142.26639157 142.26498967 142.26402151 142.26341673 142.26312664 142.26312664 142.26341673 142.26402151 142.26498967 142.26639157 142.26831130 142.27082580 142.27396063 142.27761542 142.28146986 142.28491086 142.28705146 142.28691531 142.28379664 142.27766616 142.26943536 142.26106985 142.25514280 142.25514280 142.25514280 142.25514280 142.25514280 142.25514280 142.26442720 142.27388634 142.28191614 142.28699065 142.28849701 142.28684178 142.28309359 142.27846017 142.27389247 142.26993894 142.26679589 142.26443768 142.26273977 142.26155938 142.26077475 142.26029743 142.26007194 142.26007194 142.26029743 142.26077475 142.26155938 142.26273977 142.26443768 142.26679589 142.26993894 142.27389247 142.27846017 142.28309359 142.28684178 142.28849701 142.28699065 142.28191614 142.27388634 142.26442720 142.25514280 142.25514280 142.25514280 142.25514280 142.25514280 142.25514280 142.26654490 142.27673359 142.28455833 142.28876544 142.28903160 142.28608652 142.28126917 142.27592925 142.27102458 142.26702271 142.26401056 142.26186567 142.26039546 142.25941736 142.25879031 142.25841881 142.25824607 142.25824607 142.25841881 142.25879031 142.25941736 142.26039546 142.26186567 142.26401056 142.26702271 142.27102458 142.27592925 142.28126917 142.28608652 142.28903160 142.28876544 142.28455833 142.27673359 142.26654490 142.25514280 142.25514280 142.25514280 142.25514280 142.25514280 142.25862722 142.26829768 142.27826174 142.28582951 142.28952531 142.28911926 142.28550764 142.28016790 142.27451320 142.26949125 142.26551663 142.26261365 142.26060846 142.25927494 142.25841266 142.25787328 142.25755964 142.25741549 142.25741549 142.25755964 142.25787328 142.25841266 142.25927494 142.26060846 142.26261365 142.26551663 142.26949125 142.27451320 142.28016790 142.28550764 142.28911926 142.28952531 142.28582951 142.27826174 142.26829768 142.25862722 142.25514280 142.25514280 142.25514280 142.25514280 142.25862722 142.26829768 142.27826174 142.28582951 142.28952531 142.28911926 142.28550764 142.28016790 142.27451320 142.26949125 142.26551663 142.26261365 142.26060846 142.25927494 142.25841266 142.25787328 142.25755964 142.25741549 142.25741549 142.25755964 142.25787328 142.25841266 142.25927494 142.26060846 142.26261365 142.26551663 142.26949125 142.27451320 142.28016790 142.28550764 142.28911926 142.28952531 142.28582951 142.27826174 142.26829768 142.25862722 142.25514280 142.25514280 142.25514280 142.25514280 142.25514280 142.26654490 142.27673359 142.28455833 142.28876544 142.28903160 142.28608652 142.28126917 142.27592925 142.27102458 142.26702271 142.26401056 142.26186567 142.26039546 142.25941736 142.25879031 142.25841881 142.25824607 142.25824607 142.25841881 142.25879031 142.25941736 142.26039546 142.26186567 142.26401056 142.26702271 142.27102458 142.27592925 142.28126917 142.28608652 142.28903160 142.28876544 142.28455833 142.27673359 142.26654490 142.25514280 142.25514280 142.25514280 142.25514280 142.25514280 142.25514280 142.26442720 142.27388634 142.28191614 142.28699065 142.28849701 142.28684178 142.28309359 142.27846017 142.27389247 142.26993894 142.26679589 142.26443768 142.26273977 142.26155938 142.26077475 142.26029743 142.26007194 142.26007194 142.26029743 142.26077475 142.26155938 142.26273977 142.26443768 142.26679589 142.26993894 142.27389247 142.27846017 142.28309359 142.28684178 142.28849701 142.28699065 142.28191614 142.27388634 142.26442720 142.25514280 142.25514280 142.25514280 142.25514280 142.25514280 142.25514280 142.26106985 142.26943536 142.27766616 142.28379664 142.28691531 142.28705146 142.28491086 142.28146986 142.27761542 142.27396063 142.27082580 142.26831130 142.26639157 142.26498967 142.26402151 142.26341673 142.26312664 142.26312664 142.26341673 142.26402151 142.26498967 142.26639157 142.26831130 142.27082580 142.27396063 142.27761542 142.28146986 142.28491086 142.28705146 142.28691531 142.28379664 142.27766616 142.26943536 142.26106985 142.25514280 142.25514280 142.25514280 142.25514280 142.25514280 142.25514280 142.25514280 142.26310334 142.27175183 142.27888914 142.28368088 142.28586111 142.28574205 142.28399185 142.28134538 142.27841631 142.27561952 142.27318002 142.27118749 142.26965377 142.26855357 142.26784929 142.26750696 142.26750696 142.26784929 142.26855357 142.26965377 142.27118749 142.27318002 142.27561952 142.27841631 142.28134538 142.28399185 142.28574205 142.28586111 142.28368088 142.27888914 142.27175183 142.26310334 142.25514280 142.25514280 142.25514280 142.25514280 142.25514280 142.25514280 142.25514280 142.25514280 142.25514280 142.26478175 142.27235530 142.27845920 142.28256569 142.28459219 142.28487237 142.28389981 142.28219718 142.28020416 142.27822860 142.27646296 142.27501600 142.27393601 142.27322947 142.27288263 142.27288263 142.27322947 142.27393601 142.27501600 142.27646296 142.27822860 142.28020416 142.28219718 142.28389981 142.28487237 142.28459219 142.28256569 142.27845920 142.27235530 142.26478175 142.25514280 142.25514280 142.25514280 142.25514280 142.25514280 142.25514280 142.25514280 142.25514280 142.25514280 142.25514280 142.25914687 142.26467748 142.27137065 142.27691735 142.28079017 142.28309787 142.28402391 142.28392411 142.28318038 142.28210413 142.28094424 142.27989196 142.27906885 142.27852300 142.27825504 142.27825504 142.27852300 142.27906885 142.27989196 142.28094424 142.28210413 142.28318038 142.28392411 142.28402391 142.28309787 142.28079017 142.27691735 142.27137065 142.26467748 142.25914687 142.25514280 142.25514280 142.25514280 142.25514280 142.25514280 142.25514280 142.25514280 142.25514280 142.25514280 142.25514280 142.25514280 142.25514280 142.26297417 142.26937337 142.27429424 142.27821618 142.28085271 142.28239954 142.28312741 142.28324498 142.28299141 142.28261438 142.28229573 142.28209894 142.28201081 142.28201081 142.28209894 142.28229573 142.28261438 142.28299141 142.28324498 142.28312741 142.28239954 142.28085271 142.27821618 142.27429424 142.26937337 142.26297417 142.25514280 142.25514280 142.25514280 142.25514280 142.25514280 142.25514280 142.25514280 142.25514280 142.25514280 142.25514280 142.25514280 142.25514280 142.25514280 142.25514280 142.25514280 142.26135274 142.26568336 142.27064438 142.27435185 142.27717373 142.27925086 142.28054125 142.28123202 142.28162814 142.28197305 142.28228067 142.28246042 142.28246042 142.28228067 142.28197305 142.28162814 142.28123202 142.28054125 142.27925086 142.27717373 142.27435185 142.27064438 142.26568336 142.26135274 142.25514280 142.25514280 142.25514280 142.25514280 142.25514280 142.25514280 142.25514280 142.25514280 142.25514280 142.25514280 142.25514280 142.25514280 142.25514280 142.25514280 142.25514280 142.25514280 142.25514280 142.25514280 142.26179635 142.26541074 142.26891721 142.27194567 142.27399092 142.27527989 142.27625310 142.27730550 142.27822218 142.27872191 142.27872191 142.27822218 142.27730550 142.27625310 142.27527989 142.27399092 142.27194567 142.26891721 142.26541074 142.26179635 142.25514280 142.25514280 142.25514280 142.25514280 142.25514280 142.25514280 142.25514280 142.25514280 142.25514280 142.25514280 142.25514280 142.25514280 142.25514280 142.25514280 142.25514280 142.25514280 142.25514280 142.25514280 142.25514280 142.25514280 142.25514280 142.25514280 142.25964280 142.26298281 142.26487928 142.26601584 142.26704029 142.26896688 142.27061412 142.27142831 142.27142831 142.27061412 142.26896688 142.26704029 142.26601584 142.26487928 142.26298281 142.25964280 142.25514280 142.25514280 142.25514280 142.25514280 142.25514280 142.25514280 142.25514280 142.25514280 142.25514280 142.25514280 142.25514280 142.25514280 142.25514280 142.25514280 142.25514280 142.25514280 142.25514280 142.25514280 142.25514280 142.25514280 142.25514280 142.25514280 142.25514280 142.25514280 142.25514280 142.25514280 142.25514280 142.25514280 142.25514280 142.25940699 142.26181069 142.26272097 142.26272097 142.26181069 142.25940699 142.25514280 142.25514280 142.25514280 142.25514280 142.25514280 142.25514280 142.25514280 142.25514280 142.25514280 142.25514280 142.25514280 142.25514280 142.25514280 142.25514280 142.25514280 142.25514280 142.25514280 142.25514280 142.25514280 142.25514280 142.25514280 142.25514280 142.25514280 142.25514280 142.25514280 142.25514280 142.25514280 142.25514280 142.25514280 142.25514280 142.25514280 142.25514280 142.25514280 142.25514280 142.25514280 142.25514280 142.25514280 142.25514280 142.25514280 142.25514280 142.25514280 142.25514280 142.25514280 142.25514280 142.25514280 142.25514280 142.25514280 142.25514280 142.25514280 142.25514280 142.25514280 142.25514280 142.25514280 142.25514280 142.25514280 142.25514280 142.25514280 142.25514280 142.25514280 142.25514280 142.25514280 142.25514280 142.25514280 142.25514280 142.25514280 142.25514280 142.25514280 142.25514280 142.25514280 142.25514280 142.25514280 142.25514280 142.25514280 142.25514280 142.25514280 142.25514280 142.25514280 142.25514280 142.25514280 142.25514280 142.25514280 142.25514280 142.25514280 142.25514280 142.25514280 142.25514280 142.25514280 142.25514280 142.25514280 142.25514280 142.25514280 142.25514280 142.25514280 142.25514280 142.25514280 142.25514280 142.25514280 142.25514280 142.25514280 142.25514280 142.25514280 142.25514280 142.25514280 142.25514280 142.25514280 142.25514280 142.25514280 142.25514280 142.25514280 142.25514280 142.25514280 142.25514280 142.25514280 142.25514280 142.25514280 142.25514280 142.25514280 142.25514280 142.25514280 142.25514280 142.25514280 142.25514280 142.25514280 142.25514280 142.25514280 142.25514280 142.25514280 142.25514280 142.25514280 142.25514280 142.25514280 142.25514280 142.25514280 142.25514280 142.25514280 142.25514280 142.25514280 142.25514280 142.25514280 142.25514280 142.25514280 142.25514280 142.25514280 142.25514280 142.25514280 142.25514280 142.25514280 142.25514280 142.25514280 142.25514280 142.25514280 142.25514280 142.25514280 142.25514280 142.25514280 142.25514280 142.25514280 142.25514280 142.25514280 142.25514280 142.25514280 142.25514280 142.25514280 142.25514280 142.25514280 142.25514280 142.25514280 142.25514280 142.25514280 142.25514280 142.25514280 142.25514280 142.25514280 142.25514280 142.25514280 142.25514280 142.25514280 142.25514280 142.25514280 142.25514280 142.25514280 142.25514280 142.25514280 142.25514280 142.25514280 142.25514280 142.25514280 142.25514280 142.25514280 142.25514280 142.25514280 142.25514280 142.25514280 142.25514280 142.25514280 142.25514280 142.25514280 142.25514280 142.25514280 142.25514280 142.25514280 142.25514280 142.25514280 142.25514280 142.25514280 142.25514280 142.25514280 142.25514280 142.25514280 142.25514280 142.25514280 142.25514280 142.25514280 142.25514280 142.25514280 142.25514280 142.25514280 142.25514280 142.25514280 142.25514280 142.25514280 142.25514280 142.25514280 142.25514280 142.25514280 142.25514280 142.25514280 142.25514280 142.25514280 142.25514280 142.25514280 142.25514280 142.25514280 142.25514280 142.25514280 142.25514280 142.25514280 142.25514280 142.25514280 142.25514280 142.25514280 142.25514280 142.25514280 142.25514280 142.25514280 142.25514280 142.25514280 142.25514280 142.25514280 142.25514280 142.25514280 142.25514280 142.25514280 142.25514280 142.25514280 142.25514280 142.25514280 142.25514280 142.25514280 142.25514280 142.25514280 142.25514280 142.25514280 142.25514280 142.25514280 142.25514280 142.25514280 142.25514280 142.25514280 142.25514280 142.25514280 142.25514280 142.25514280 142.25514280 142.25514280 142.25514280 142.25514280 142.25514280 142.25514280 142.25514280 142.25514280 142.25514280 142.25514280 142.25514280 142.25514280 142.25514280 142.25514280 142.25514280 142.25514280 142.25514280 142.25514280 142.25514280 142.25514280 142.25514280 142.25514280 142.25514280 142.25514280 142.25514280 142.25514280 142.25514280 142.25514280 142.25514280 142.25514280 142.25514280 142.25514280 142.25514280 142.25514280 142.25514280 142.25514280 142.25514280 142.25514280 142.25514280 142.25514280 142.25514280 142.25514280 142.25514280 142.25514280 142.25514280 142.25514280 142.25514280 142.25514280 142.25514280 142.25514280 142.25514280 142.25514280 142.25514280 142.25514280 142.25514280 142.25514280 142.25514280 142.25514280 142.25514280 142.25514280 142.25514280 142.25514280 142.25514280 142.25514280 