# vtk DataFile Version 3.0
VTK - Matlab export
ASCII
DATASET STRUCTURED_POINTS
DIMENSIONS 40 40 1
SPACING 1 1 1
ORIGIN 0 0 0
POINT_DATA 1600
SCALARS Proofstrength float 1
LOOKUP_TABLE default
142.25514280 142.25514280 142.25514280 142.25514280 142.25514280 142.25514280 142.25514280 142.25514280 142.25514280 142.25514280 142.25514280 142.25514280 142.25514280 142.25514280 142.25514280 142.25514280 142.25514280 142.25514280 142.25514280 142.25514280 142.25514280 142.25514280 142.25514280 142.25514280 142.25514280 142.25514280 142.25514280 142.25514280 142.25514280 142.25514280 142.25514280 142.25514280 142.25514280 142.25514280 142.25514280 142.25514280 142.25514280 142.25514280 142.25514280 142.25514280 142.25514280 142.25514280 142.25514280 142.25514280 142.25514280 142.25514280 142.25514280 142.25514280 142.25514280 142.25514280 142.25514280 142.25514280 142.25514280 142.25514280 142.25514280 142.25514280 142.25514280 142.25514280 142.25514280 142.25514280 142.25514280 142.25514280 142.25514280 142.25514280 142.25514280 142.25514280 142.25514280 142.25514280 142.25514280 142.25514280 142.25514280 142.25514280 142.25514280 142.25514280 142.25514280 142.25514280 142.25514280 142.25514280 142.25514280 142.25514280 142.25514280 142.25514280 142.25514280 142.25514280 142.25514280 142.25514280 142.25514280 142.25514280 142.25514280 142.25514280 142.25514280 142.25514280 142.25514280 142.25514280 142.25514280 142.25514280 142.25514280 142.25514280 142.25514280 142.25514280 142.25514280 142.25514280 142.25514280 142.25514280 142.25514280 142.25514280 142.25514280 142.25514280 142.25514280 142.25514280 142.25514280 142.25514280 142.25514280 142.25514280 142.25514280 142.25514280 142.25514280 142.25514280 142.25514280 142.25514280 142.25514280 142.25514280 142.25514280 142.25514280 142.25514280 142.25514280 142.25514280 142.25514280 142.25514280 142.25514280 142.25514280 142.25514280 142.25514280 142.25514280 142.25514280 142.25514280 142.25514280 142.25514280 142.25514280 142.25514280 142.25514280 142.25514280 142.25514280 142.25514280 142.25514280 142.25514280 142.25514280 142.25514280 142.25514280 142.25514280 142.25514280 142.25514280 142.25514280 142.25514280 142.25514280 142.25514280 142.25514280 142.25514280 142.25514280 142.25514280 142.25514280 142.25514280 142.25514280 142.25514280 142.25514280 142.25514280 142.25514280 142.25514280 142.25514280 142.25514280 142.25514280 142.25514280 142.25514280 142.25514280 142.25514280 142.25514280 142.25514280 142.25514280 142.25514280 142.25514280 142.25514280 142.25514280 142.25514280 142.25514280 142.25514280 142.25514280 142.25514280 142.25514280 142.25514280 142.25514280 142.25514280 142.25514280 142.25514280 142.25514280 142.25514280 142.25514280 142.25514280 142.25514280 142.25514280 142.25514280 142.25514280 142.25514280 142.25514280 142.25514280 142.25514280 142.25514280 142.25514280 142.25514280 142.25514280 142.25514280 142.25514280 142.25514280 142.25514280 142.25514280 142.25514280 142.25514280 142.25514280 142.25514280 142.25514280 142.25514280 142.25514280 142.25514280 142.25514280 142.25514280 142.25514280 142.25514280 142.25514280 142.25514280 142.25514280 142.25514280 142.25514280 142.25514280 142.25514280 142.25514280 142.25514280 142.25514280 142.25514280 142.25514280 142.25514280 142.25514280 142.25514280 142.25514280 142.25514280 142.25514280 142.25514280 142.25514280 142.25514280 142.25514280 142.25514280 142.25514280 142.25514280 142.25514280 142.25514280 142.25514280 142.25514280 142.25514280 142.25514280 142.25514280 142.25514280 142.25514280 142.25514280 142.25514280 142.25514280 142.25514280 142.25514280 142.25514280 142.25514280 142.25514280 142.25514280 142.25514280 142.25514280 142.25514280 142.25514280 142.25514280 142.25514280 142.25514280 142.25514280 142.25514280 142.25514280 142.25514280 142.25514280 142.25514280 142.25514280 142.25514280 142.25514280 142.25514280 142.25514280 142.25514280 142.25514280 142.25514280 142.25514280 142.25514280 142.25514280 142.25514280 142.25514280 142.25514280 142.25514280 142.25514280 142.25514280 142.25514280 142.25514280 142.25514280 142.25514280 142.25514280 142.25514280 142.25514280 142.25514280 142.25514280 142.25514280 142.25514280 142.25514280 142.25514280 142.25514280 142.25514280 142.25514280 142.25514280 142.25514280 142.25514280 142.25514280 142.25514280 142.25514280 142.25514280 142.25514280 142.25514280 142.25514280 142.25514280 142.25514280 142.25514280 142.25514280 142.25514280 142.25514280 142.25514280 142.25514280 142.25514280 142.25514280 142.25514280 142.25514280 142.25707015 142.25811895 142.25850525 142.25850525 142.25811895 142.25707015 142.25514280 142.25514280 142.25514280 142.25514280 142.25514280 142.25514280 142.25514280 142.25514280 142.25514280 142.25514280 142.25514280 142.25514280 142.25514280 142.25514280 142.25514280 142.25514280 142.25514280 142.25514280 142.25514280 142.25514280 142.25514280 142.25514280 142.25514280 142.25514280 142.25514280 142.25514280 142.25514280 142.25514280 142.25514280 142.25717862 142.25869540 142.25959730 142.26018193 142.26070915 142.26160245 142.26233443 142.26268825 142.26268825 142.26233443 142.26160245 142.26070915 142.26018193 142.25959730 142.25869540 142.25717862 142.25514280 142.25514280 142.25514280 142.25514280 142.25514280 142.25514280 142.25514280 142.25514280 142.25514280 142.25514280 142.25514280 142.25514280 142.25514280 142.25514280 142.25514280 142.25514280 142.25514280 142.25514280 142.25514280 142.25514280 142.25514280 142.25514280 142.25817321 142.25986530 142.26155135 142.26306260 142.26417655 142.26497070 142.26560020 142.26620654 142.26669019 142.26694387 142.26694387 142.26669019 142.26620654 142.26560020 142.26497070 142.26417655 142.26306260 142.26155135 142.25986530 142.25817321 142.25514280 142.25514280 142.25514280 142.25514280 142.25514280 142.25514280 142.25514280 142.25514280 142.25514280 142.25514280 142.25514280 142.25514280 142.25514280 142.25514280 142.25514280 142.25514280 142.25514280 142.25514280 142.25798404 142.26003584 142.26244689 142.26439498 142.26602572 142.26736886 142.26837701 142.26909690 142.26962388 142.27003722 142.27033719 142.27049386 142.27049386 142.27033719 142.27003722 142.26962388 142.26909690 142.26837701 142.26736886 142.26602572 142.26439498 142.26244689 142.26003584 142.25798404 142.25514280 142.25514280 142.25514280 142.25514280 142.25514280 142.25514280 142.25514280 142.25514280 142.25514280 142.25514280 142.25514280 142.25514280 142.25514280 142.25514280 142.25514280 142.25875652 142.26183558 142.26442023 142.26671124 142.26854544 142.26994980 142.27098324 142.27169208 142.27214803 142.27243640 142.27262632 142.27274910 142.27281046 142.27281046 142.27274910 142.27262632 142.27243640 142.27214803 142.27169208 142.27098324 142.26994980 142.26854544 142.26671124 142.26442023 142.26183558 142.25875652 142.25514280 142.25514280 142.25514280 142.25514280 142.25514280 142.25514280 142.25514280 142.25514280 142.25514280 142.25514280 142.25514280 142.25514280 142.25692549 142.25950166 142.26281223 142.26588039 142.26845388 142.27049487 142.27197704 142.27295726 142.27353302 142.27380690 142.27388132 142.27384937 142.27378201 142.27372162 142.27368783 142.27368783 142.27372162 142.27378201 142.27384937 142.27388132 142.27380690 142.27353302 142.27295726 142.27197704 142.27049487 142.26845388 142.26588039 142.26281223 142.25950166 142.25692549 142.25514280 142.25514280 142.25514280 142.25514280 142.25514280 142.25514280 142.25514280 142.25514280 142.25514280 142.25514280 142.25946759 142.26317261 142.26663467 142.26960213 142.27190896 142.27351636 142.27446894 142.27488043 142.27489695 142.27466353 142.27430725 142.27392904 142.27359998 142.27336316 142.27324044 142.27324044 142.27336316 142.27359998 142.27392904 142.27430725 142.27466353 142.27489695 142.27488043 142.27446894 142.27351636 142.27190896 142.26960213 142.26663467 142.26317261 142.25946759 142.25514280 142.25514280 142.25514280 142.25514280 142.25514280 142.25514280 142.25514280 142.25514280 142.25514280 142.25860620 142.26266506 142.26656884 142.27000870 142.27273331 142.27461498 142.27566164 142.27598613 142.27576522 142.27519417 142.27445108 142.27367842 142.27297825 142.27241575 142.27202724 142.27182986 142.27182986 142.27202724 142.27241575 142.27297825 142.27367842 142.27445108 142.27519417 142.27576522 142.27598613 142.27566164 142.27461498 142.27273331 142.27000870 142.26656884 142.26266506 142.25860620 142.25514280 142.25514280 142.25514280 142.25514280 142.25514280 142.25514280 142.25514280 142.25762909 142.26135418 142.26551510 142.26946207 142.27276300 142.27515225 142.27653704 142.27698367 142.27667298 142.27584192 142.27472859 142.27353439 142.27240773 142.27144462 142.27069881 142.27019519 142.26994244 142.26994244 142.27019519 142.27069881 142.27144462 142.27240773 142.27353439 142.27472859 142.27584192 142.27667298 142.27698367 142.27653704 142.27515225 142.27276300 142.26946207 142.26551510 142.26135418 142.25762909 142.25514280 142.25514280 142.25514280 142.25514280 142.25514280 142.25514280 142.25903997 142.26334830 142.26772938 142.27168829 142.27481156 142.27685295 142.27776164 142.27766195 142.27679566 142.27545026 142.27389652 142.27234981 142.27095745 142.26980511 142.26893279 142.26835261 142.26806398 142.26806398 142.26835261 142.26893279 142.26980511 142.27095745 142.27234981 142.27389652 142.27545026 142.27679566 142.27766195 142.27776164 142.27685295 142.27481156 142.27168829 142.26772938 142.26334830 142.25903997 142.25514280 142.25514280 142.25514280 142.25514280 142.25514280 142.25514280 142.25994502 142.26467880 142.26923010 142.27318162 142.27614708 142.27790544 142.27844334 142.27793159 142.27665786 142.27494565 142.27308703 142.27130417 142.26974023 142.26847057 142.26752311 142.26689927 142.26659077 142.26659077 142.26689927 142.26752311 142.26847057 142.26974023 142.27130417 142.27308703 142.27494565 142.27665786 142.27793159 142.27844334 142.27790544 142.27614708 142.27318162 142.26923010 142.26467880 142.25994502 142.25514280 142.25514280 142.25514280 142.25514280 142.25514280 142.25657825 142.26068155 142.26540396 142.26999688 142.27392934 142.27680113 142.27840119 142.27873685 142.27800448 142.27651630 142.27461442 142.27260123 142.27070134 142.26905462 142.26773011 142.26674874 142.26610589 142.26578897 142.26578897 142.26610589 142.26674874 142.26773011 142.26905462 142.27070134 142.27260123 142.27461442 142.27651630 142.27800448 142.27873685 142.27840119 142.27680113 142.27392934 142.26999688 142.26540396 142.26068155 142.25657825 142.25514280 142.25514280 142.25514280 142.25514280 142.25657825 142.26068155 142.26540396 142.26999688 142.27392934 142.27680113 142.27840119 142.27873685 142.27800448 142.27651630 142.27461442 142.27260123 142.27070134 142.26905462 142.26773011 142.26674874 142.26610589 142.26578897 142.26578897 142.26610589 142.26674874 142.26773011 142.26905462 142.27070134 142.27260123 142.27461442 142.27651630 142.27800448 142.27873685 142.27840119 142.27680113 142.27392934 142.26999688 142.26540396 142.26068155 142.25657825 142.25514280 142.25514280 142.25514280 142.25514280 142.25514280 142.25994502 142.26467880 142.26923010 142.27318162 142.27614708 142.27790544 142.27844334 142.27793159 142.27665786 142.27494565 142.27308703 142.27130417 142.26974023 142.26847057 142.26752311 142.26689927 142.26659077 142.26659077 142.26689927 142.26752311 142.26847057 142.26974023 142.27130417 142.27308703 142.27494565 142.27665786 142.27793159 142.27844334 142.27790544 142.27614708 142.27318162 142.26923010 142.26467880 142.25994502 142.25514280 142.25514280 142.25514280 142.25514280 142.25514280 142.25514280 142.25903997 142.26334830 142.26772938 142.27168829 142.27481156 142.27685295 142.27776164 142.27766195 142.27679566 142.27545026 142.27389652 142.27234981 142.27095745 142.26980511 142.26893279 142.26835261 142.26806398 142.26806398 142.26835261 142.26893279 142.26980511 142.27095745 142.27234981 142.27389652 142.27545026 142.27679566 142.27766195 142.27776164 142.27685295 142.27481156 142.27168829 142.26772938 142.26334830 142.25903997 142.25514280 142.25514280 142.25514280 142.25514280 142.25514280 142.25514280 142.25762909 142.26135418 142.26551510 142.26946207 142.27276300 142.27515225 142.27653704 142.27698367 142.27667298 142.27584192 142.27472859 142.27353439 142.27240773 142.27144462 142.27069881 142.27019519 142.26994244 142.26994244 142.27019519 142.27069881 142.27144462 142.27240773 142.27353439 142.27472859 142.27584192 142.27667298 142.27698367 142.27653704 142.27515225 142.27276300 142.26946207 142.26551510 142.26135418 142.25762909 142.25514280 142.25514280 142.25514280 142.25514280 142.25514280 142.25514280 142.25514280 142.25860620 142.26266506 142.26656884 142.27000870 142.27273331 142.27461498 142.27566164 142.27598613 142.27576522 142.27519417 142.27445108 142.27367842 142.27297825 142.27241575 142.27202724 142.27182986 142.27182986 142.27202724 142.27241575 142.27297825 142.27367842 142.27445108 142.27519417 142.27576522 142.27598613 142.27566164 142.27461498 142.27273331 142.27000870 142.26656884 142.26266506 142.25860620 142.25514280 142.25514280 142.25514280 142.25514280 142.25514280 142.25514280 142.25514280 142.25514280 142.25514280 142.25946759 142.26317261 142.26663467 142.26960213 142.27190896 142.27351636 142.27446894 142.27488043 142.27489695 142.27466353 142.27430725 142.27392904 142.27359998 142.27336316 142.27324044 142.27324044 142.27336316 142.27359998 142.27392904 142.27430725 142.27466353 142.27489695 142.27488043 142.27446894 142.27351636 142.27190896 142.26960213 142.26663467 142.26317261 142.25946759 142.25514280 142.25514280 142.25514280 142.25514280 142.25514280 142.25514280 142.25514280 142.25514280 142.25514280 142.25514280 142.25692549 142.25950166 142.26281223 142.26588039 142.26845388 142.27049487 142.27197704 142.27295726 142.27353302 142.27380690 142.27388132 142.27384937 142.27378201 142.27372162 142.27368783 142.27368783 142.27372162 142.27378201 142.27384937 142.27388132 142.27380690 142.27353302 142.27295726 142.27197704 142.27049487 142.26845388 142.26588039 142.26281223 142.25950166 142.25692549 142.25514280 142.25514280 142.25514280 142.25514280 142.25514280 142.25514280 142.25514280 142.25514280 142.25514280 142.25514280 142.25514280 142.25514280 142.25875652 142.26183558 142.26442023 142.26671124 142.26854544 142.26994980 142.27098324 142.27169208 142.27214803 142.27243640 142.27262632 142.27274910 142.27281046 142.27281046 142.27274910 142.27262632 142.27243640 142.27214803 142.27169208 142.27098324 142.26994980 142.26854544 142.26671124 142.26442023 142.26183558 142.25875652 142.25514280 142.25514280 142.25514280 142.25514280 142.25514280 142.25514280 142.25514280 142.25514280 142.25514280 142.25514280 142.25514280 142.25514280 142.25514280 142.25514280 142.25514280 142.25798404 142.26003584 142.26244689 142.26439498 142.26602572 142.26736886 142.26837701 142.26909690 142.26962388 142.27003722 142.27033719 142.27049386 142.27049386 142.27033719 142.27003722 142.26962388 142.26909690 142.26837701 142.26736886 142.26602572 142.26439498 142.26244689 142.26003584 142.25798404 142.25514280 142.25514280 142.25514280 142.25514280 142.25514280 142.25514280 142.25514280 142.25514280 142.25514280 142.25514280 142.25514280 142.25514280 142.25514280 142.25514280 142.25514280 142.25514280 142.25514280 142.25514280 142.25817321 142.25986530 142.26155135 142.26306260 142.26417655 142.26497070 142.26560020 142.26620654 142.26669019 142.26694387 142.26694387 142.26669019 142.26620654 142.26560020 142.26497070 142.26417655 142.26306260 142.26155135 142.25986530 142.25817321 142.25514280 142.25514280 142.25514280 142.25514280 142.25514280 142.25514280 142.25514280 142.25514280 142.25514280 142.25514280 142.25514280 142.25514280 142.25514280 142.25514280 142.25514280 142.25514280 142.25514280 142.25514280 142.25514280 142.25514280 142.25514280 142.25514280 142.25717862 142.25869540 142.25959730 142.26018193 142.26070915 142.26160245 142.26233443 142.26268825 142.26268825 142.26233443 142.26160245 142.26070915 142.26018193 142.25959730 142.25869540 142.25717862 142.25514280 142.25514280 142.25514280 142.25514280 142.25514280 142.25514280 142.25514280 142.25514280 142.25514280 142.25514280 142.25514280 142.25514280 142.25514280 142.25514280 142.25514280 142.25514280 142.25514280 142.25514280 142.25514280 142.25514280 142.25514280 142.25514280 142.25514280 142.25514280 142.25514280 142.25514280 142.25514280 142.25514280 142.25514280 142.25707015 142.25811895 142.25850525 142.25850525 142.25811895 142.25707015 142.25514280 142.25514280 142.25514280 142.25514280 142.25514280 142.25514280 142.25514280 142.25514280 142.25514280 142.25514280 142.25514280 142.25514280 142.25514280 142.25514280 142.25514280 142.25514280 142.25514280 142.25514280 142.25514280 142.25514280 142.25514280 142.25514280 142.25514280 142.25514280 142.25514280 142.25514280 142.25514280 142.25514280 142.25514280 142.25514280 142.25514280 142.25514280 142.25514280 142.25514280 142.25514280 142.25514280 142.25514280 142.25514280 142.25514280 142.25514280 142.25514280 142.25514280 142.25514280 142.25514280 142.25514280 142.25514280 142.25514280 142.25514280 142.25514280 142.25514280 142.25514280 142.25514280 142.25514280 142.25514280 142.25514280 142.25514280 142.25514280 142.25514280 142.25514280 142.25514280 142.25514280 142.25514280 142.25514280 142.25514280 142.25514280 142.25514280 142.25514280 142.25514280 142.25514280 142.25514280 142.25514280 142.25514280 142.25514280 142.25514280 142.25514280 142.25514280 142.25514280 142.25514280 142.25514280 142.25514280 142.25514280 142.25514280 142.25514280 142.25514280 142.25514280 142.25514280 142.25514280 142.25514280 142.25514280 142.25514280 142.25514280 142.25514280 142.25514280 142.25514280 142.25514280 142.25514280 142.25514280 142.25514280 142.25514280 142.25514280 142.25514280 142.25514280 142.25514280 142.25514280 142.25514280 142.25514280 142.25514280 142.25514280 142.25514280 142.25514280 142.25514280 142.25514280 142.25514280 142.25514280 142.25514280 142.25514280 142.25514280 142.25514280 142.25514280 142.25514280 142.25514280 142.25514280 142.25514280 142.25514280 142.25514280 142.25514280 142.25514280 142.25514280 142.25514280 142.25514280 142.25514280 142.25514280 142.25514280 142.25514280 142.25514280 142.25514280 142.25514280 142.25514280 142.25514280 142.25514280 142.25514280 142.25514280 142.25514280 142.25514280 142.25514280 142.25514280 142.25514280 142.25514280 142.25514280 142.25514280 142.25514280 142.25514280 142.25514280 142.25514280 142.25514280 142.25514280 142.25514280 142.25514280 142.25514280 142.25514280 142.25514280 142.25514280 142.25514280 142.25514280 142.25514280 142.25514280 142.25514280 142.25514280 142.25514280 142.25514280 142.25514280 142.25514280 142.25514280 142.25514280 142.25514280 142.25514280 142.25514280 142.25514280 142.25514280 142.25514280 142.25514280 142.25514280 142.25514280 142.25514280 142.25514280 142.25514280 142.25514280 142.25514280 142.25514280 142.25514280 142.25514280 142.25514280 142.25514280 142.25514280 142.25514280 142.25514280 142.25514280 142.25514280 142.25514280 142.25514280 142.25514280 142.25514280 142.25514280 142.25514280 142.25514280 142.25514280 142.25514280 142.25514280 142.25514280 142.25514280 142.25514280 142.25514280 142.25514280 142.25514280 142.25514280 142.25514280 142.25514280 142.25514280 142.25514280 142.25514280 142.25514280 142.25514280 142.25514280 142.25514280 142.25514280 142.25514280 142.25514280 142.25514280 142.25514280 142.25514280 142.25514280 142.25514280 142.25514280 142.25514280 142.25514280 142.25514280 142.25514280 142.25514280 142.25514280 142.25514280 142.25514280 142.25514280 142.25514280 142.25514280 142.25514280 142.25514280 142.25514280 142.25514280 142.25514280 142.25514280 142.25514280 142.25514280 142.25514280 142.25514280 142.25514280 142.25514280 142.25514280 142.25514280 142.25514280 142.25514280 142.25514280 142.25514280 142.25514280 142.25514280 142.25514280 142.25514280 142.25514280 142.25514280 142.25514280 142.25514280 142.25514280 142.25514280 142.25514280 142.25514280 142.25514280 142.25514280 142.25514280 142.25514280 142.25514280 142.25514280 142.25514280 142.25514280 142.25514280 142.25514280 142.25514280 142.25514280 142.25514280 142.25514280 142.25514280 142.25514280 142.25514280 142.25514280 142.25514280 142.25514280 142.25514280 142.25514280 142.25514280 142.25514280 142.25514280 142.25514280 142.25514280 142.25514280 142.25514280 142.25514280 142.25514280 142.25514280 142.25514280 142.25514280 142.25514280 142.25514280 142.25514280 142.25514280 142.25514280 142.25514280 142.25514280 142.25514280 142.25514280 142.25514280 142.25514280 142.25514280 142.25514280 142.25514280 142.25514280 142.25514280 142.25514280 142.25514280 142.25514280 142.25514280 142.25514280 142.25514280 142.25514280 142.25514280 142.25514280 142.25514280 142.25514280 142.25514280 142.25514280 