# vtk DataFile Version 3.0
VTK - Matlab export
ASCII
DATASET STRUCTURED_POINTS
DIMENSIONS 40 40 1
SPACING 1 1 1
ORIGIN 0 0 0
POINT_DATA 1600
SCALARS Proofstrength float 1
LOOKUP_TABLE default
142.25514280 142.25514280 142.25514280 142.25514280 142.25514280 142.25514280 142.25514280 142.25514280 142.25514280 142.25514280 142.25514280 142.25514280 142.25514280 142.25514280 142.25514280 142.25514280 142.25514280 142.25514280 142.25514280 142.25514280 142.25514280 142.25514280 142.25514280 142.25514280 142.25514280 142.25514280 142.25514280 142.25514280 142.25514280 142.25514280 142.25514280 142.25514280 142.25514280 142.25514280 142.25514280 142.25514280 142.25514280 142.25514280 142.25514280 142.25514280 142.25514280 142.25514280 142.25514280 142.25514280 142.25514280 142.25514280 142.25514280 142.25514280 142.25514280 142.25514280 142.25514280 142.25514280 142.25514280 142.25514280 142.25514280 142.25514280 142.25514280 142.25514280 142.25514280 142.25514280 142.25514280 142.25514280 142.25514280 142.25514280 142.25514280 142.25514280 142.25514280 142.25514280 142.25514280 142.25514280 142.25514280 142.25514280 142.25514280 142.25514280 142.25514280 142.25514280 142.25514280 142.25514280 142.25514280 142.25514280 142.25514280 142.25514280 142.25514280 142.25514280 142.25514280 142.25514280 142.25514280 142.25514280 142.25514280 142.25514280 142.25514280 142.25514280 142.25514280 142.25514280 142.25514280 142.25514280 142.25514280 142.25514280 142.25514280 142.25514280 142.25514280 142.25514280 142.25514280 142.25514280 142.25514280 142.25514280 142.25514280 142.25514280 142.25514280 142.25514280 142.25514280 142.25514280 142.25514280 142.25514280 142.25514280 142.25514280 142.25514280 142.25514280 142.25514280 142.25514280 142.25514280 142.25514280 142.25514280 142.25514280 142.25514280 142.25514280 142.25514280 142.25514280 142.25514280 142.25514280 142.25514280 142.25514280 142.25514280 142.25514280 142.25514280 142.25514280 142.25514280 142.25514280 142.25514280 142.25514280 142.25514280 142.25514280 142.25514280 142.25514280 142.25514280 142.25514280 142.25514280 142.25514280 142.25514280 142.25514280 142.25514280 142.25514280 142.25514280 142.25514280 142.25514280 142.25514280 142.25514280 142.25514280 142.25514280 142.25514280 142.25514280 142.25514280 142.25514280 142.25514280 142.25514280 142.25514280 142.25514280 142.25514280 142.25514280 142.25514280 142.25514280 142.25514280 142.25514280 142.25514280 142.25514280 142.25514280 142.25514280 142.25514280 142.25514280 142.25514280 142.25514280 142.25514280 142.25514280 142.25514280 142.25514280 142.25514280 142.25514280 142.25514280 142.25514280 142.25514280 142.25514280 142.25514280 142.25514280 142.25514280 142.25514280 142.25514280 142.25514280 142.25514280 142.25514280 142.25514280 142.25514280 142.25514280 142.25514280 142.25514280 142.25514280 142.25514280 142.25514280 142.25514280 142.25514280 142.25514280 142.25514280 142.25514280 142.25514280 142.25514280 142.25514280 142.25514280 142.25514280 142.25514280 142.25514280 142.25514280 142.25514280 142.25514280 142.25514280 142.25514280 142.25514280 142.25514280 142.25514280 142.25514280 142.25514280 142.25514280 142.25514280 142.25514280 142.25514280 142.25514280 142.25514280 142.25514280 142.25514280 142.25514280 142.25514280 142.25514280 142.25514280 142.25514280 142.25514280 142.25514280 142.25514280 142.25514280 142.25514280 142.25514280 142.25514280 142.25514280 142.25514280 142.25514280 142.25514280 142.25514280 142.25514280 142.25514280 142.25514280 142.25514280 142.25514280 142.25514280 142.25514280 142.25514280 142.25514280 142.25514280 142.25514280 142.25514280 142.25514280 142.25514280 142.25514280 142.25514280 142.25514280 142.25514280 142.25514280 142.25514280 142.25514280 142.25514280 142.25514280 142.25514280 142.25514280 142.25514280 142.25514280 142.25514280 142.25514280 142.25514280 142.25514280 142.25514280 142.25514280 142.25514280 142.25514280 142.25514280 142.25514280 142.25514280 142.25514280 142.25514280 142.25514280 142.25514280 142.25514280 142.25514280 142.25514280 142.25514280 142.25514280 142.25514280 142.25514280 142.25514280 142.25514280 142.25514280 142.25514280 142.25514280 142.25514280 142.25514280 142.25514280 142.25514280 142.25514280 142.25514280 142.25514280 142.25514280 142.25514280 142.25514280 142.25514280 142.25514280 142.25514280 142.25514280 142.25514280 142.25514280 142.25514280 142.25514280 142.25514280 142.25514280 142.25514280 142.25514280 142.25514280 142.25514280 142.25514280 142.25514280 142.25514280 142.25514280 142.25514280 142.36156145 142.42949105 142.44197858 142.44197858 142.42949105 142.36156145 142.25514280 142.25514280 142.25514280 142.25514280 142.25514280 142.25514280 142.25514280 142.25514280 142.25514280 142.25514280 142.25514280 142.25514280 142.25514280 142.25514280 142.25514280 142.25514280 142.25514280 142.25514280 142.25514280 142.25514280 142.25514280 142.25514280 142.25514280 142.25514280 142.25514280 142.25514280 142.25514280 142.25514280 142.25514280 142.35933600 142.42270326 142.42202184 142.40501684 142.39686107 142.42141888 142.42878678 142.41635710 142.41635710 142.42878678 142.42141888 142.39686107 142.40501684 142.42202184 142.42270326 142.35933600 142.25514280 142.25514280 142.25514280 142.25514280 142.25514280 142.25514280 142.25514280 142.25514280 142.25514280 142.25514280 142.25514280 142.25514280 142.25514280 142.25514280 142.25514280 142.25514280 142.25514280 142.25514280 142.25514280 142.25514280 142.25514280 142.25514280 142.38943552 142.41519028 142.42527354 142.41465143 142.38426147 142.36267439 142.34969645 142.34131160 142.32638864 142.31368156 142.31368156 142.32638864 142.34131160 142.34969645 142.36267439 142.38426147 142.41465143 142.42527354 142.41519028 142.38943552 142.25514280 142.25514280 142.25514280 142.25514280 142.25514280 142.25514280 142.25514280 142.25514280 142.25514280 142.25514280 142.25514280 142.25514280 142.25514280 142.25514280 142.25514280 142.25514280 142.25514280 142.25514280 142.38902760 142.41291722 142.42099699 142.38385662 142.34835123 142.31897894 142.29804634 142.28903271 142.28389459 142.27788906 142.27062076 142.26644207 142.26644207 142.27062076 142.27788906 142.28389459 142.28903271 142.29804634 142.31897894 142.34835123 142.38385662 142.42099699 142.41291722 142.38902760 142.25514280 142.25514280 142.25514280 142.25514280 142.25514280 142.25514280 142.25514280 142.25514280 142.25514280 142.25514280 142.25514280 142.25514280 142.25514280 142.25514280 142.25514280 142.38555590 142.43353017 142.39054890 142.34016058 142.30162945 142.28080456 142.26876316 142.26285933 142.26112252 142.26016348 142.25865181 142.25706865 142.25638272 142.25638272 142.25706865 142.25865181 142.26016348 142.26112252 142.26285933 142.26876316 142.28080456 142.30162945 142.34016058 142.39054890 142.43353017 142.38555590 142.25514280 142.25514280 142.25514280 142.25514280 142.25514280 142.25514280 142.25514280 142.25514280 142.25514280 142.25514280 142.25514280 142.25514280 142.36140956 142.41574620 142.41863302 142.36786672 142.31093140 142.27842062 142.26432139 142.25916135 142.25680772 142.25594638 142.25578327 142.25568452 142.25546962 142.25527665 142.25521830 142.25521830 142.25527665 142.25546962 142.25568452 142.25578327 142.25594638 142.25680772 142.25916135 142.26432139 142.27842062 142.31093140 142.36786672 142.41863302 142.41574620 142.36140956 142.25514280 142.25514280 142.25514280 142.25514280 142.25514280 142.25514280 142.25514280 142.25514280 142.25514280 142.25514280 142.41580177 142.41817260 142.35285152 142.29612763 142.26829717 142.25879574 142.25618098 142.25551122 142.25525648 142.25519087 142.25518476 142.25517893 142.25516022 142.25514715 142.25514506 142.25514506 142.25514715 142.25516022 142.25517893 142.25518476 142.25519087 142.25525648 142.25551122 142.25618098 142.25879574 142.26829717 142.29612763 142.35285152 142.41817260 142.41580177 142.25514280 142.25514280 142.25514280 142.25514280 142.25514280 142.25514280 142.25514280 142.25514280 142.25514280 142.38706251 142.41923430 142.35295328 142.29166959 142.26457099 142.25700123 142.25546684 142.25520832 142.25516161 142.25514645 142.25514436 142.25514436 142.25514419 142.25514322 142.25514283 142.25514283 142.25514283 142.25514283 142.25514322 142.25514419 142.25514436 142.25514436 142.25514645 142.25516161 142.25520832 142.25546684 142.25700123 142.26457099 142.29166959 142.35295328 142.41923430 142.38706251 142.25514280 142.25514280 142.25514280 142.25514280 142.25514280 142.25514280 142.25514280 142.39752708 142.44151522 142.37081221 142.29667788 142.26462540 142.25656806 142.25529505 142.25515729 142.25514488 142.25514322 142.25514283 142.25514283 142.25514283 142.25514283 142.25514280 142.25514280 142.25514280 142.25514280 142.25514280 142.25514280 142.25514283 142.25514283 142.25514283 142.25514283 142.25514322 142.25514488 142.25515729 142.25529505 142.25656806 142.26462540 142.29667788 142.37081221 142.44151522 142.39752708 142.25514280 142.25514280 142.25514280 142.25514280 142.25514280 142.25514280 142.42939642 142.41129482 142.31912604 142.26987939 142.25716443 142.25530350 142.25514992 142.25514305 142.25514283 142.25514280 142.25514280 142.25514280 142.25514280 142.25514280 142.25514280 142.25514280 142.25514280 142.25514280 142.25514280 142.25514280 142.25514280 142.25514280 142.25514280 142.25514280 142.25514280 142.25514283 142.25514305 142.25514992 142.25530350 142.25716443 142.26987939 142.31912604 142.41129482 142.42939642 142.25514280 142.25514280 142.25514280 142.25514280 142.25514280 142.25514280 142.42181526 142.37312944 142.29249283 142.26166897 142.25581098 142.25518298 142.25514421 142.25514283 142.25514280 142.25514280 142.25514280 142.25514280 142.25514280 142.25514280 142.25514280 142.25514280 142.25514280 142.25514280 142.25514280 142.25514280 142.25514280 142.25514280 142.25514280 142.25514280 142.25514280 142.25514280 142.25514283 142.25514421 142.25518298 142.25581098 142.26166897 142.29249283 142.37312944 142.42181526 142.25514280 142.25514280 142.25514280 142.25514280 142.25514280 142.35968346 142.45084231 142.36370877 142.28434150 142.25956110 142.25553405 142.25516213 142.25514322 142.25514280 142.25514280 142.25514280 142.25514280 142.25514280 142.25514280 142.25514280 142.25514280 142.25514280 142.25514280 142.25514280 142.25514280 142.25514280 142.25514280 142.25514280 142.25514280 142.25514280 142.25514280 142.25514280 142.25514280 142.25514322 142.25516213 142.25553405 142.25956110 142.28434150 142.36370877 142.45084231 142.35968346 142.25514280 142.25514280 142.25514280 142.25514280 142.35968346 142.45084231 142.36370877 142.28434150 142.25956110 142.25553405 142.25516213 142.25514322 142.25514280 142.25514280 142.25514280 142.25514280 142.25514280 142.25514280 142.25514280 142.25514280 142.25514280 142.25514280 142.25514280 142.25514280 142.25514280 142.25514280 142.25514280 142.25514280 142.25514280 142.25514280 142.25514280 142.25514280 142.25514322 142.25516213 142.25553405 142.25956110 142.28434150 142.36370877 142.45084231 142.35968346 142.25514280 142.25514280 142.25514280 142.25514280 142.25514280 142.42181526 142.37312944 142.29249283 142.26166897 142.25581098 142.25518298 142.25514421 142.25514283 142.25514280 142.25514280 142.25514280 142.25514280 142.25514280 142.25514280 142.25514280 142.25514280 142.25514280 142.25514280 142.25514280 142.25514280 142.25514280 142.25514280 142.25514280 142.25514280 142.25514280 142.25514280 142.25514283 142.25514421 142.25518298 142.25581098 142.26166897 142.29249283 142.37312944 142.42181526 142.25514280 142.25514280 142.25514280 142.25514280 142.25514280 142.25514280 142.42939642 142.41129482 142.31912604 142.26987939 142.25716443 142.25530350 142.25514992 142.25514305 142.25514283 142.25514280 142.25514280 142.25514280 142.25514280 142.25514280 142.25514280 142.25514280 142.25514280 142.25514280 142.25514280 142.25514280 142.25514280 142.25514280 142.25514280 142.25514280 142.25514280 142.25514283 142.25514305 142.25514992 142.25530350 142.25716443 142.26987939 142.31912604 142.41129482 142.42939642 142.25514280 142.25514280 142.25514280 142.25514280 142.25514280 142.25514280 142.39752708 142.44151522 142.37081221 142.29667788 142.26462540 142.25656806 142.25529505 142.25515729 142.25514488 142.25514322 142.25514283 142.25514283 142.25514283 142.25514283 142.25514280 142.25514280 142.25514280 142.25514280 142.25514280 142.25514280 142.25514283 142.25514283 142.25514283 142.25514283 142.25514322 142.25514488 142.25515729 142.25529505 142.25656806 142.26462540 142.29667788 142.37081221 142.44151522 142.39752708 142.25514280 142.25514280 142.25514280 142.25514280 142.25514280 142.25514280 142.25514280 142.38706251 142.41923430 142.35295328 142.29166959 142.26457099 142.25700123 142.25546684 142.25520832 142.25516161 142.25514645 142.25514436 142.25514436 142.25514419 142.25514322 142.25514283 142.25514283 142.25514283 142.25514283 142.25514322 142.25514419 142.25514436 142.25514436 142.25514645 142.25516161 142.25520832 142.25546684 142.25700123 142.26457099 142.29166959 142.35295328 142.41923430 142.38706251 142.25514280 142.25514280 142.25514280 142.25514280 142.25514280 142.25514280 142.25514280 142.25514280 142.25514280 142.41580177 142.41817260 142.35285152 142.29612763 142.26829717 142.25879574 142.25618098 142.25551122 142.25525648 142.25519087 142.25518476 142.25517893 142.25516022 142.25514715 142.25514506 142.25514506 142.25514715 142.25516022 142.25517893 142.25518476 142.25519087 142.25525648 142.25551122 142.25618098 142.25879574 142.26829717 142.29612763 142.35285152 142.41817260 142.41580177 142.25514280 142.25514280 142.25514280 142.25514280 142.25514280 142.25514280 142.25514280 142.25514280 142.25514280 142.25514280 142.36140956 142.41574620 142.41863302 142.36786672 142.31093140 142.27842062 142.26432139 142.25916135 142.25680772 142.25594638 142.25578327 142.25568452 142.25546962 142.25527665 142.25521830 142.25521830 142.25527665 142.25546962 142.25568452 142.25578327 142.25594638 142.25680772 142.25916135 142.26432139 142.27842062 142.31093140 142.36786672 142.41863302 142.41574620 142.36140956 142.25514280 142.25514280 142.25514280 142.25514280 142.25514280 142.25514280 142.25514280 142.25514280 142.25514280 142.25514280 142.25514280 142.25514280 142.38555590 142.43353017 142.39054890 142.34016058 142.30162945 142.28080456 142.26876316 142.26285933 142.26112252 142.26016348 142.25865181 142.25706865 142.25638272 142.25638272 142.25706865 142.25865181 142.26016348 142.26112252 142.26285933 142.26876316 142.28080456 142.30162945 142.34016058 142.39054890 142.43353017 142.38555590 142.25514280 142.25514280 142.25514280 142.25514280 142.25514280 142.25514280 142.25514280 142.25514280 142.25514280 142.25514280 142.25514280 142.25514280 142.25514280 142.25514280 142.25514280 142.38902760 142.41291722 142.42099699 142.38385662 142.34835123 142.31897894 142.29804634 142.28903271 142.28389459 142.27788906 142.27062076 142.26644207 142.26644207 142.27062076 142.27788906 142.28389459 142.28903271 142.29804634 142.31897894 142.34835123 142.38385662 142.42099699 142.41291722 142.38902760 142.25514280 142.25514280 142.25514280 142.25514280 142.25514280 142.25514280 142.25514280 142.25514280 142.25514280 142.25514280 142.25514280 142.25514280 142.25514280 142.25514280 142.25514280 142.25514280 142.25514280 142.25514280 142.38943552 142.41519028 142.42527354 142.41465143 142.38426147 142.36267439 142.34969645 142.34131160 142.32638864 142.31368156 142.31368156 142.32638864 142.34131160 142.34969645 142.36267439 142.38426147 142.41465143 142.42527354 142.41519028 142.38943552 142.25514280 142.25514280 142.25514280 142.25514280 142.25514280 142.25514280 142.25514280 142.25514280 142.25514280 142.25514280 142.25514280 142.25514280 142.25514280 142.25514280 142.25514280 142.25514280 142.25514280 142.25514280 142.25514280 142.25514280 142.25514280 142.25514280 142.35933600 142.42270326 142.42202184 142.40501684 142.39686107 142.42141888 142.42878678 142.41635710 142.41635710 142.42878678 142.42141888 142.39686107 142.40501684 142.42202184 142.42270326 142.35933600 142.25514280 142.25514280 142.25514280 142.25514280 142.25514280 142.25514280 142.25514280 142.25514280 142.25514280 142.25514280 142.25514280 142.25514280 142.25514280 142.25514280 142.25514280 142.25514280 142.25514280 142.25514280 142.25514280 142.25514280 142.25514280 142.25514280 142.25514280 142.25514280 142.25514280 142.25514280 142.25514280 142.25514280 142.25514280 142.36156145 142.42949105 142.44197858 142.44197858 142.42949105 142.36156145 142.25514280 142.25514280 142.25514280 142.25514280 142.25514280 142.25514280 142.25514280 142.25514280 142.25514280 142.25514280 142.25514280 142.25514280 142.25514280 142.25514280 142.25514280 142.25514280 142.25514280 142.25514280 142.25514280 142.25514280 142.25514280 142.25514280 142.25514280 142.25514280 142.25514280 142.25514280 142.25514280 142.25514280 142.25514280 142.25514280 142.25514280 142.25514280 142.25514280 142.25514280 142.25514280 142.25514280 142.25514280 142.25514280 142.25514280 142.25514280 142.25514280 142.25514280 142.25514280 142.25514280 142.25514280 142.25514280 142.25514280 142.25514280 142.25514280 142.25514280 142.25514280 142.25514280 142.25514280 142.25514280 142.25514280 142.25514280 142.25514280 142.25514280 142.25514280 142.25514280 142.25514280 142.25514280 142.25514280 142.25514280 142.25514280 142.25514280 142.25514280 142.25514280 142.25514280 142.25514280 142.25514280 142.25514280 142.25514280 142.25514280 142.25514280 142.25514280 142.25514280 142.25514280 142.25514280 142.25514280 142.25514280 142.25514280 142.25514280 142.25514280 142.25514280 142.25514280 142.25514280 142.25514280 142.25514280 142.25514280 142.25514280 142.25514280 142.25514280 142.25514280 142.25514280 142.25514280 142.25514280 142.25514280 142.25514280 142.25514280 142.25514280 142.25514280 142.25514280 142.25514280 142.25514280 142.25514280 142.25514280 142.25514280 142.25514280 142.25514280 142.25514280 142.25514280 142.25514280 142.25514280 142.25514280 142.25514280 142.25514280 142.25514280 142.25514280 142.25514280 142.25514280 142.25514280 142.25514280 142.25514280 142.25514280 142.25514280 142.25514280 142.25514280 142.25514280 142.25514280 142.25514280 142.25514280 142.25514280 142.25514280 142.25514280 142.25514280 142.25514280 142.25514280 142.25514280 142.25514280 142.25514280 142.25514280 142.25514280 142.25514280 142.25514280 142.25514280 142.25514280 142.25514280 142.25514280 142.25514280 142.25514280 142.25514280 142.25514280 142.25514280 142.25514280 142.25514280 142.25514280 142.25514280 142.25514280 142.25514280 142.25514280 142.25514280 142.25514280 142.25514280 142.25514280 142.25514280 142.25514280 142.25514280 142.25514280 142.25514280 142.25514280 142.25514280 142.25514280 142.25514280 142.25514280 142.25514280 142.25514280 142.25514280 142.25514280 142.25514280 142.25514280 142.25514280 142.25514280 142.25514280 142.25514280 142.25514280 142.25514280 142.25514280 142.25514280 142.25514280 142.25514280 142.25514280 142.25514280 142.25514280 142.25514280 142.25514280 142.25514280 142.25514280 142.25514280 142.25514280 142.25514280 142.25514280 142.25514280 142.25514280 142.25514280 142.25514280 142.25514280 142.25514280 142.25514280 142.25514280 142.25514280 142.25514280 142.25514280 142.25514280 142.25514280 142.25514280 142.25514280 142.25514280 142.25514280 142.25514280 142.25514280 142.25514280 142.25514280 142.25514280 142.25514280 142.25514280 142.25514280 142.25514280 142.25514280 142.25514280 142.25514280 142.25514280 142.25514280 142.25514280 142.25514280 142.25514280 142.25514280 142.25514280 142.25514280 142.25514280 142.25514280 142.25514280 142.25514280 142.25514280 142.25514280 142.25514280 142.25514280 142.25514280 142.25514280 142.25514280 142.25514280 142.25514280 142.25514280 142.25514280 142.25514280 142.25514280 142.25514280 142.25514280 142.25514280 142.25514280 142.25514280 142.25514280 142.25514280 142.25514280 142.25514280 142.25514280 142.25514280 142.25514280 142.25514280 142.25514280 142.25514280 142.25514280 142.25514280 142.25514280 142.25514280 142.25514280 142.25514280 142.25514280 142.25514280 142.25514280 142.25514280 142.25514280 142.25514280 142.25514280 142.25514280 142.25514280 142.25514280 142.25514280 142.25514280 142.25514280 142.25514280 142.25514280 142.25514280 142.25514280 142.25514280 142.25514280 142.25514280 142.25514280 142.25514280 142.25514280 142.25514280 142.25514280 142.25514280 142.25514280 142.25514280 142.25514280 142.25514280 142.25514280 142.25514280 142.25514280 142.25514280 142.25514280 142.25514280 142.25514280 142.25514280 142.25514280 142.25514280 142.25514280 142.25514280 142.25514280 142.25514280 142.25514280 142.25514280 142.25514280 142.25514280 142.25514280 142.25514280 142.25514280 142.25514280 142.25514280 142.25514280 142.25514280 142.25514280 142.25514280 142.25514280 142.25514280 142.25514280 