# vtk DataFile Version 3.0
VTK - Matlab export
ASCII
DATASET STRUCTURED_POINTS
DIMENSIONS 40 40 1
SPACING 1 1 1
ORIGIN 0 0 0
POINT_DATA 1600
SCALARS lambda-2 float 1
LOOKUP_TABLE default
7.22156776 7.22156776 7.22156776 7.22156776 7.22156776 7.22156776 7.22156776 7.22156776 7.22156776 7.22156776 7.22156776 7.22156776 7.22156776 7.22156776 7.22156776 7.22156776 7.22156776 7.22156776 7.22156776 7.22156776 7.22156776 7.22156776 7.22156776 7.22156776 7.22156776 7.22156776 7.22156776 7.22156776 7.22156776 7.22156776 7.22156776 7.22156776 7.22156776 7.22156776 7.22156776 7.22156776 7.22156776 7.22156776 7.22156776 7.22156776 7.22156776 7.22156776 7.22156776 7.22156776 7.22156776 7.22156776 7.22156776 7.22156776 7.22156776 7.22156776 7.22156776 7.22156776 7.22156776 7.22156776 7.22156776 7.22156776 7.22156776 7.22156776 7.22156776 7.22156776 7.22156776 7.22156776 7.22156776 7.22156776 7.22156776 7.22156776 7.22156776 7.22156776 7.22156776 7.22156776 7.22156776 7.22156776 7.22156776 7.22156776 7.22156776 7.22156776 7.22156776 7.22156776 7.22156776 7.22156776 7.22156776 7.22156776 7.22156776 7.22156776 7.22156776 7.22156776 7.22156776 7.22156776 7.22156776 7.22156776 7.22156776 7.22156776 7.22156776 7.22156776 7.22156776 7.22156776 7.22156776 7.22156776 7.22156776 7.22156776 7.22156776 7.22156776 7.22156776 7.22156776 7.22156776 7.22156776 7.22156776 7.22156776 7.22156776 7.22156776 7.22156776 7.22156776 7.22156776 7.22156776 7.22156776 7.22156776 7.22156776 7.22156776 7.22156776 7.22156776 7.22156776 7.22156776 7.22156776 7.22156776 7.22156776 7.22156776 7.22156776 7.22156776 7.22156776 7.22156776 7.22156776 7.22156776 7.22156776 7.22156776 7.22156776 7.22156776 7.22156776 7.22156776 7.22156776 7.22156776 7.22156776 7.22156776 7.22156776 7.22156776 7.22156776 7.22156776 7.22156776 7.22156776 7.22156776 7.22156776 7.22156776 7.22156776 7.22156776 7.22156776 7.22156776 7.22156776 7.22156776 7.22156776 7.22156776 7.22156776 7.22156776 7.22156776 7.22156776 7.22156776 7.22156776 7.22156776 7.22156776 7.22156776 7.22156776 7.22156776 7.22156776 7.22156776 7.22156776 7.22156776 7.22156776 7.22156776 7.22156776 7.22156776 7.22156776 7.22156776 7.22156776 7.22156776 7.22156776 7.22156776 7.22156776 7.22156776 7.22156776 7.22156776 7.22156776 7.22156776 7.22156776 7.22156776 7.22156776 7.22156776 7.22156776 7.22156776 7.22156776 7.22156776 7.22156776 7.22156776 7.22156776 7.22156776 7.22156776 7.22156776 7.22156776 7.22156776 7.22156776 7.22156776 7.22156776 7.22156776 7.22156776 7.22156776 7.22156776 7.22156776 7.22156776 7.22156776 7.22156776 7.22156776 7.22156776 7.22156776 7.22156776 7.22156776 7.22156776 7.22156776 7.22156776 7.22156776 7.22156776 7.22156776 7.22156776 7.22156776 7.22156776 7.22156776 7.22156776 7.22156776 7.22156776 7.22156776 7.22156776 7.22156776 7.22156776 7.22156776 7.22156776 7.22156776 7.22156776 7.22156776 7.22156776 7.22156776 7.22156776 7.22156776 7.22156776 7.22156776 7.22156776 7.22156776 7.22156776 7.22156776 7.22156776 7.22156776 7.22156776 7.22156776 7.22156776 7.22156776 7.22156776 7.22156776 7.22156776 7.22156776 7.22156776 7.22156776 7.22156776 7.22156776 7.22156776 7.22156776 7.22156776 7.22156776 7.22156776 7.22156776 7.22156776 7.22156776 7.22156776 7.22156776 7.22156776 7.22156776 7.22156776 7.22156776 7.22156776 7.22156776 7.22156776 7.22156776 7.22156776 7.22156776 7.22156776 7.22156776 7.22156776 7.22156776 7.22156776 7.22156776 7.22156776 7.22156776 7.22156776 7.22156776 7.22156776 7.22156776 7.22156776 7.22156776 7.22156776 7.22156776 7.22156776 7.22156776 7.22156776 7.22156776 7.22156776 7.22156776 7.22156776 7.22156776 7.22156776 7.22156776 7.22156776 7.22156776 7.22156776 7.22156776 7.22156776 7.22156776 7.22156776 7.22156776 7.22156776 7.22156776 7.22156776 7.22156776 7.22156776 7.22156776 7.22156776 7.22156776 7.22156776 7.22156776 7.22156776 7.22156776 7.22156776 7.22156776 7.22156776 7.21299132 7.20758080 7.20533140 7.20533140 7.20758080 7.21299132 7.22156776 7.22156776 7.22156776 7.22156776 7.22156776 7.22156776 7.22156776 7.22156776 7.22156776 7.22156776 7.22156776 7.22156776 7.22156776 7.22156776 7.22156776 7.22156776 7.22156776 7.22156776 7.22156776 7.22156776 7.22156776 7.22156776 7.22156776 7.22156776 7.22156776 7.22156776 7.22156776 7.22156776 7.22156776 7.21264168 7.20607728 7.20284997 7.20147981 7.20021464 7.19655525 7.19293031 7.19099272 7.19099272 7.19293031 7.19655525 7.20021464 7.20147981 7.20284997 7.20607728 7.21264168 7.22156776 7.22156776 7.22156776 7.22156776 7.22156776 7.22156776 7.22156776 7.22156776 7.22156776 7.22156776 7.22156776 7.22156776 7.22156776 7.22156776 7.22156776 7.22156776 7.22156776 7.22156776 7.22156776 7.22156776 7.22156776 7.22156776 7.20854906 7.20212158 7.19638817 7.19192455 7.18983029 7.18943205 7.18935331 7.18840183 7.18705473 7.18620250 7.18620250 7.18705473 7.18840183 7.18935331 7.18943205 7.18983029 7.19192455 7.19638817 7.20212158 7.20854906 7.22156776 7.22156776 7.22156776 7.22156776 7.22156776 7.22156776 7.22156776 7.22156776 7.22156776 7.22156776 7.22156776 7.22156776 7.22156776 7.22156776 7.22156776 7.22156776 7.22156776 7.22156776 7.20951164 7.20193615 7.19396551 7.18955599 7.18747975 7.18689417 7.18765604 7.18921313 7.19072876 7.19159089 7.19186242 7.19190253 7.19190253 7.19186242 7.19159089 7.19072876 7.18921313 7.18765604 7.18689417 7.18747975 7.18955599 7.19396551 7.20193615 7.20951164 7.22156776 7.22156776 7.22156776 7.22156776 7.22156776 7.22156776 7.22156776 7.22156776 7.22156776 7.22156776 7.22156776 7.22156776 7.22156776 7.22156776 7.22156776 7.20694589 7.19615274 7.18994103 7.18692187 7.18701704 7.18899140 7.19170214 7.19459936 7.19731996 7.19953378 7.20105753 7.20194781 7.20235427 7.20235427 7.20194781 7.20105753 7.19953378 7.19731996 7.19459936 7.19170214 7.18899140 7.18701704 7.18692187 7.18994103 7.19615274 7.20694589 7.22156776 7.22156776 7.22156776 7.22156776 7.22156776 7.22156776 7.22156776 7.22156776 7.22156776 7.22156776 7.22156776 7.22156776 7.21372287 7.20392476 7.19368427 7.18779776 7.18667032 7.18882275 7.19279827 7.19723962 7.20127467 7.20460072 7.20719443 7.20910268 7.21040366 7.21120315 7.21158642 7.21158642 7.21120315 7.21040366 7.20910268 7.20719443 7.20460072 7.20127467 7.19723962 7.19279827 7.18882275 7.18667032 7.18779776 7.19368427 7.20392476 7.21372287 7.22156776 7.22156776 7.22156776 7.22156776 7.22156776 7.22156776 7.22156776 7.22156776 7.22156776 7.22156776 7.20359228 7.19223933 7.18670935 7.18679500 7.19074662 7.19633702 7.20193551 7.20666043 7.21024651 7.21280880 7.21458439 7.21578744 7.21657710 7.21706034 7.21729327 7.21729327 7.21706034 7.21657710 7.21578744 7.21458439 7.21280880 7.21024651 7.20666043 7.20193551 7.19633702 7.19074662 7.18679500 7.18670935 7.19223933 7.20359228 7.22156776 7.22156776 7.22156776 7.22156776 7.22156776 7.22156776 7.22156776 7.22156776 7.22156776 7.20617857 7.19243230 7.18572426 7.18617973 7.19140676 7.19840015 7.20497551 7.21015583 7.21381575 7.21622702 7.21775637 7.21871446 7.21931558 7.21969230 7.21991832 7.22002655 7.22002655 7.21991832 7.21969230 7.21931558 7.21871446 7.21775637 7.21622702 7.21381575 7.21015583 7.20497551 7.19840015 7.19140676 7.18617973 7.18572426 7.19243230 7.20617857 7.22156776 7.22156776 7.22156776 7.22156776 7.22156776 7.22156776 7.22156776 7.20927375 7.19460118 7.18519184 7.18428176 7.18996233 7.19826395 7.20602751 7.21186725 7.21571265 7.21803973 7.21937974 7.22013605 7.22056523 7.22081448 7.22096295 7.22104967 7.22109071 7.22109071 7.22104967 7.22096295 7.22081448 7.22056523 7.22013605 7.21937974 7.21803973 7.21571265 7.21186725 7.20602751 7.19826395 7.18996233 7.18428176 7.18519184 7.19460118 7.20927375 7.22156776 7.22156776 7.22156776 7.22156776 7.22156776 7.22156776 7.20275495 7.18790686 7.18229381 7.18616740 7.19519879 7.20458071 7.21172930 7.21625237 7.21878690 7.22010322 7.22076121 7.22108872 7.22125585 7.22134522 7.22139557 7.22142409 7.22143739 7.22143739 7.22142409 7.22139557 7.22134522 7.22125585 7.22108872 7.22076121 7.22010322 7.21878690 7.21625237 7.21172930 7.20458071 7.19519879 7.18616740 7.18229381 7.18790686 7.20275495 7.22156776 7.22156776 7.22156776 7.22156776 7.22156776 7.22156776 7.19914522 7.18472605 7.18202404 7.18899109 7.19963870 7.20897859 7.21516841 7.21857648 7.22022665 7.22096229 7.22127784 7.22141397 7.22147543 7.22150534 7.22152118 7.22152987 7.22153387 7.22153387 7.22152987 7.22152118 7.22150534 7.22147543 7.22141397 7.22127784 7.22096229 7.22022665 7.21857648 7.21516841 7.20897859 7.19963870 7.18899109 7.18202404 7.18472605 7.19914522 7.22156776 7.22156776 7.22156776 7.22156776 7.22156776 7.21435022 7.19598670 7.18325184 7.18238612 7.19085616 7.20207031 7.21114319 7.21671153 7.21952712 7.22076150 7.22125153 7.22143607 7.22150562 7.22153335 7.22154557 7.22155168 7.22155494 7.22155644 7.22155644 7.22155494 7.22155168 7.22154557 7.22153335 7.22150562 7.22143607 7.22125153 7.22076150 7.21952712 7.21671153 7.21114319 7.20207031 7.19085616 7.18238612 7.18325184 7.19598670 7.21435022 7.22156776 7.22156776 7.22156776 7.22156776 7.21435022 7.19598670 7.18325184 7.18238612 7.19085616 7.20207031 7.21114319 7.21671153 7.21952712 7.22076150 7.22125153 7.22143607 7.22150562 7.22153335 7.22154557 7.22155168 7.22155494 7.22155644 7.22155644 7.22155494 7.22155168 7.22154557 7.22153335 7.22150562 7.22143607 7.22125153 7.22076150 7.21952712 7.21671153 7.21114319 7.20207031 7.19085616 7.18238612 7.18325184 7.19598670 7.21435022 7.22156776 7.22156776 7.22156776 7.22156776 7.22156776 7.19914522 7.18472605 7.18202404 7.18899109 7.19963870 7.20897859 7.21516841 7.21857648 7.22022665 7.22096229 7.22127784 7.22141397 7.22147543 7.22150534 7.22152118 7.22152987 7.22153387 7.22153387 7.22152987 7.22152118 7.22150534 7.22147543 7.22141397 7.22127784 7.22096229 7.22022665 7.21857648 7.21516841 7.20897859 7.19963870 7.18899109 7.18202404 7.18472605 7.19914522 7.22156776 7.22156776 7.22156776 7.22156776 7.22156776 7.22156776 7.20275495 7.18790686 7.18229381 7.18616740 7.19519879 7.20458071 7.21172930 7.21625237 7.21878690 7.22010322 7.22076121 7.22108872 7.22125585 7.22134522 7.22139557 7.22142409 7.22143739 7.22143739 7.22142409 7.22139557 7.22134522 7.22125585 7.22108872 7.22076121 7.22010322 7.21878690 7.21625237 7.21172930 7.20458071 7.19519879 7.18616740 7.18229381 7.18790686 7.20275495 7.22156776 7.22156776 7.22156776 7.22156776 7.22156776 7.22156776 7.20927375 7.19460118 7.18519184 7.18428176 7.18996233 7.19826395 7.20602751 7.21186725 7.21571265 7.21803973 7.21937974 7.22013605 7.22056523 7.22081448 7.22096295 7.22104967 7.22109071 7.22109071 7.22104967 7.22096295 7.22081448 7.22056523 7.22013605 7.21937974 7.21803973 7.21571265 7.21186725 7.20602751 7.19826395 7.18996233 7.18428176 7.18519184 7.19460118 7.20927375 7.22156776 7.22156776 7.22156776 7.22156776 7.22156776 7.22156776 7.22156776 7.20617857 7.19243230 7.18572426 7.18617973 7.19140676 7.19840015 7.20497551 7.21015583 7.21381575 7.21622702 7.21775637 7.21871446 7.21931558 7.21969230 7.21991832 7.22002655 7.22002655 7.21991832 7.21969230 7.21931558 7.21871446 7.21775637 7.21622702 7.21381575 7.21015583 7.20497551 7.19840015 7.19140676 7.18617973 7.18572426 7.19243230 7.20617857 7.22156776 7.22156776 7.22156776 7.22156776 7.22156776 7.22156776 7.22156776 7.22156776 7.22156776 7.20359228 7.19223933 7.18670935 7.18679500 7.19074662 7.19633702 7.20193551 7.20666043 7.21024651 7.21280880 7.21458439 7.21578744 7.21657710 7.21706034 7.21729327 7.21729327 7.21706034 7.21657710 7.21578744 7.21458439 7.21280880 7.21024651 7.20666043 7.20193551 7.19633702 7.19074662 7.18679500 7.18670935 7.19223933 7.20359228 7.22156776 7.22156776 7.22156776 7.22156776 7.22156776 7.22156776 7.22156776 7.22156776 7.22156776 7.22156776 7.21372287 7.20392476 7.19368427 7.18779776 7.18667032 7.18882275 7.19279827 7.19723962 7.20127467 7.20460072 7.20719443 7.20910268 7.21040366 7.21120315 7.21158642 7.21158642 7.21120315 7.21040366 7.20910268 7.20719443 7.20460072 7.20127467 7.19723962 7.19279827 7.18882275 7.18667032 7.18779776 7.19368427 7.20392476 7.21372287 7.22156776 7.22156776 7.22156776 7.22156776 7.22156776 7.22156776 7.22156776 7.22156776 7.22156776 7.22156776 7.22156776 7.22156776 7.20694589 7.19615274 7.18994103 7.18692187 7.18701704 7.18899140 7.19170214 7.19459936 7.19731996 7.19953378 7.20105753 7.20194781 7.20235427 7.20235427 7.20194781 7.20105753 7.19953378 7.19731996 7.19459936 7.19170214 7.18899140 7.18701704 7.18692187 7.18994103 7.19615274 7.20694589 7.22156776 7.22156776 7.22156776 7.22156776 7.22156776 7.22156776 7.22156776 7.22156776 7.22156776 7.22156776 7.22156776 7.22156776 7.22156776 7.22156776 7.22156776 7.20951164 7.20193615 7.19396551 7.18955599 7.18747975 7.18689417 7.18765604 7.18921313 7.19072876 7.19159089 7.19186242 7.19190253 7.19190253 7.19186242 7.19159089 7.19072876 7.18921313 7.18765604 7.18689417 7.18747975 7.18955599 7.19396551 7.20193615 7.20951164 7.22156776 7.22156776 7.22156776 7.22156776 7.22156776 7.22156776 7.22156776 7.22156776 7.22156776 7.22156776 7.22156776 7.22156776 7.22156776 7.22156776 7.22156776 7.22156776 7.22156776 7.22156776 7.20854906 7.20212158 7.19638817 7.19192455 7.18983029 7.18943205 7.18935331 7.18840183 7.18705473 7.18620250 7.18620250 7.18705473 7.18840183 7.18935331 7.18943205 7.18983029 7.19192455 7.19638817 7.20212158 7.20854906 7.22156776 7.22156776 7.22156776 7.22156776 7.22156776 7.22156776 7.22156776 7.22156776 7.22156776 7.22156776 7.22156776 7.22156776 7.22156776 7.22156776 7.22156776 7.22156776 7.22156776 7.22156776 7.22156776 7.22156776 7.22156776 7.22156776 7.21264168 7.20607728 7.20284997 7.20147981 7.20021464 7.19655525 7.19293031 7.19099272 7.19099272 7.19293031 7.19655525 7.20021464 7.20147981 7.20284997 7.20607728 7.21264168 7.22156776 7.22156776 7.22156776 7.22156776 7.22156776 7.22156776 7.22156776 7.22156776 7.22156776 7.22156776 7.22156776 7.22156776 7.22156776 7.22156776 7.22156776 7.22156776 7.22156776 7.22156776 7.22156776 7.22156776 7.22156776 7.22156776 7.22156776 7.22156776 7.22156776 7.22156776 7.22156776 7.22156776 7.22156776 7.21299132 7.20758080 7.20533140 7.20533140 7.20758080 7.21299132 7.22156776 7.22156776 7.22156776 7.22156776 7.22156776 7.22156776 7.22156776 7.22156776 7.22156776 7.22156776 7.22156776 7.22156776 7.22156776 7.22156776 7.22156776 7.22156776 7.22156776 7.22156776 7.22156776 7.22156776 7.22156776 7.22156776 7.22156776 7.22156776 7.22156776 7.22156776 7.22156776 7.22156776 7.22156776 7.22156776 7.22156776 7.22156776 7.22156776 7.22156776 7.22156776 7.22156776 7.22156776 7.22156776 7.22156776 7.22156776 7.22156776 7.22156776 7.22156776 7.22156776 7.22156776 7.22156776 7.22156776 7.22156776 7.22156776 7.22156776 7.22156776 7.22156776 7.22156776 7.22156776 7.22156776 7.22156776 7.22156776 7.22156776 7.22156776 7.22156776 7.22156776 7.22156776 7.22156776 7.22156776 7.22156776 7.22156776 7.22156776 7.22156776 7.22156776 7.22156776 7.22156776 7.22156776 7.22156776 7.22156776 7.22156776 7.22156776 7.22156776 7.22156776 7.22156776 7.22156776 7.22156776 7.22156776 7.22156776 7.22156776 7.22156776 7.22156776 7.22156776 7.22156776 7.22156776 7.22156776 7.22156776 7.22156776 7.22156776 7.22156776 7.22156776 7.22156776 7.22156776 7.22156776 7.22156776 7.22156776 7.22156776 7.22156776 7.22156776 7.22156776 7.22156776 7.22156776 7.22156776 7.22156776 7.22156776 7.22156776 7.22156776 7.22156776 7.22156776 7.22156776 7.22156776 7.22156776 7.22156776 7.22156776 7.22156776 7.22156776 7.22156776 7.22156776 7.22156776 7.22156776 7.22156776 7.22156776 7.22156776 7.22156776 7.22156776 7.22156776 7.22156776 7.22156776 7.22156776 7.22156776 7.22156776 7.22156776 7.22156776 7.22156776 7.22156776 7.22156776 7.22156776 7.22156776 7.22156776 7.22156776 7.22156776 7.22156776 7.22156776 7.22156776 7.22156776 7.22156776 7.22156776 7.22156776 7.22156776 7.22156776 7.22156776 7.22156776 7.22156776 7.22156776 7.22156776 7.22156776 7.22156776 7.22156776 7.22156776 7.22156776 7.22156776 7.22156776 7.22156776 7.22156776 7.22156776 7.22156776 7.22156776 7.22156776 7.22156776 7.22156776 7.22156776 7.22156776 7.22156776 7.22156776 7.22156776 7.22156776 7.22156776 7.22156776 7.22156776 7.22156776 7.22156776 7.22156776 7.22156776 7.22156776 7.22156776 7.22156776 7.22156776 7.22156776 7.22156776 7.22156776 7.22156776 7.22156776 7.22156776 7.22156776 7.22156776 7.22156776 7.22156776 7.22156776 7.22156776 7.22156776 7.22156776 7.22156776 7.22156776 7.22156776 7.22156776 7.22156776 7.22156776 7.22156776 7.22156776 7.22156776 7.22156776 7.22156776 7.22156776 7.22156776 7.22156776 7.22156776 7.22156776 7.22156776 7.22156776 7.22156776 7.22156776 7.22156776 7.22156776 7.22156776 7.22156776 7.22156776 7.22156776 7.22156776 7.22156776 7.22156776 7.22156776 7.22156776 7.22156776 7.22156776 7.22156776 7.22156776 7.22156776 7.22156776 7.22156776 7.22156776 7.22156776 7.22156776 7.22156776 7.22156776 7.22156776 7.22156776 7.22156776 7.22156776 7.22156776 7.22156776 7.22156776 7.22156776 7.22156776 7.22156776 7.22156776 7.22156776 7.22156776 7.22156776 7.22156776 7.22156776 7.22156776 7.22156776 7.22156776 7.22156776 7.22156776 7.22156776 7.22156776 7.22156776 7.22156776 7.22156776 7.22156776 7.22156776 7.22156776 7.22156776 7.22156776 7.22156776 7.22156776 7.22156776 7.22156776 7.22156776 7.22156776 7.22156776 7.22156776 7.22156776 7.22156776 7.22156776 7.22156776 7.22156776 7.22156776 7.22156776 7.22156776 7.22156776 7.22156776 7.22156776 7.22156776 7.22156776 7.22156776 7.22156776 7.22156776 7.22156776 7.22156776 7.22156776 7.22156776 7.22156776 7.22156776 7.22156776 7.22156776 7.22156776 7.22156776 7.22156776 7.22156776 7.22156776 7.22156776 7.22156776 7.22156776 7.22156776 7.22156776 7.22156776 7.22156776 7.22156776 7.22156776 7.22156776 7.22156776 7.22156776 7.22156776 7.22156776 7.22156776 7.22156776 7.22156776 7.22156776 7.22156776 7.22156776 7.22156776 