# vtk DataFile Version 3.0
VTK - Matlab export
ASCII
DATASET STRUCTURED_POINTS
DIMENSIONS 40 40 1
SPACING 1 1 1
ORIGIN 0 0 0
POINT_DATA 1600
SCALARS Temperature float 1
LOOKUP_TABLE default
300.00000000 300.00000000 300.00000000 300.00000000 300.00000000 300.00000000 300.00000000 300.00000000 300.00000000 300.00000000 300.00000000 300.00000000 300.00000000 300.00000000 300.00000000 300.00000000 300.00000000 300.00000000 300.00000000 300.00000000 300.00000000 300.00000000 300.00000000 300.00000000 300.00000000 300.00000000 300.00000000 300.00000000 300.00000000 300.00000000 300.00000000 300.00000000 300.00000000 300.00000000 300.00000000 300.00000000 300.00000000 300.00000000 300.00000000 300.00000000 300.00000000 300.00000000 300.00000000 300.00000000 300.00000000 300.00000000 300.00000000 300.00000000 300.00000000 300.00000000 300.00000000 300.00000000 300.00000000 300.00000000 300.00000000 300.00000000 300.00000000 300.00000000 300.00000000 300.00000000 300.00000000 300.00000000 300.00000000 300.00000000 300.00000000 300.00000000 300.00000000 300.00000000 300.00000000 300.00000000 300.00000000 300.00000000 300.00000000 300.00000000 300.00000000 300.00000000 300.00000000 300.00000000 300.00000000 300.00000000 300.00000000 300.00000000 300.00000000 300.00000000 300.00000000 300.00000000 300.00000000 300.00000000 300.00000000 300.00000000 300.00000000 300.00000000 300.00000000 300.00000000 300.00000000 300.00000000 300.00000000 300.00000000 300.00000000 300.00000000 300.00000000 300.00000000 300.00000000 300.00000000 300.00000000 300.00000000 300.00000000 300.00000000 300.00000000 300.00000000 300.00000000 300.00000000 300.00000000 300.00000000 300.00000000 300.00000000 300.00000000 300.00000000 300.00000000 300.00000000 300.00000000 300.00000000 300.00000000 300.00000000 300.00000000 300.00000000 300.00000000 300.00000000 300.00000000 300.00000000 300.00000000 300.00000000 300.00000000 300.00000000 300.00000000 300.00000000 300.00000000 300.00000000 300.00000000 300.00000000 300.00000000 300.00000000 300.00000000 300.00000000 300.00000000 300.00000000 300.00000000 300.00000000 300.00000000 300.00000000 300.00000000 300.00000000 300.00000000 300.00000000 300.00000000 300.00000000 300.00000000 300.00000000 300.00000000 300.00000000 300.00000000 300.00000000 300.00000000 300.00000000 300.00000000 300.00000000 300.00000000 300.00000000 300.00000000 300.00000000 300.00000000 300.00000000 300.00000000 300.00000000 300.00000000 300.00000000 300.00000000 300.00000000 300.00000000 300.00000000 300.00000000 300.00000000 300.00000000 300.00000000 300.00000000 300.00000000 300.00000000 300.00000000 300.00000000 300.00000000 300.00000000 300.00000000 300.00000000 300.00000000 300.00000000 300.00000000 300.00000000 300.00000000 300.00000000 300.00000000 300.00000000 300.00000000 300.00000000 300.00000000 300.00000000 300.00000000 300.00000000 300.00000000 300.00000000 300.00000000 300.00000000 300.00000000 300.00000000 300.00000000 300.00000000 300.00000000 300.00000000 300.00000000 300.00000000 300.00000000 300.00000000 300.00000000 300.00000000 300.00000000 300.00000000 300.00000000 300.00000000 300.00000000 300.00000000 300.00000000 300.00000000 300.00000000 300.00000000 300.00000000 300.00000000 300.00000000 300.00000000 300.00000000 300.00000000 300.00000000 300.00000000 300.00000000 300.00000000 300.00000000 300.00000000 300.00000000 300.00000000 300.00000000 300.00000000 300.00000000 300.00000000 300.00000000 300.00000000 300.00000000 300.00000000 300.00000000 300.00000000 300.00000000 300.00000000 300.00000000 300.00000000 300.00000000 300.00000000 300.00000000 300.00000000 300.00000000 300.00000000 300.00000000 300.00000000 300.00000000 300.00000000 300.00000000 300.00000000 300.00000000 300.00000000 300.00000000 300.00000000 300.00000000 300.00000000 300.00000000 300.00000000 300.00000000 300.00000000 300.00000000 300.00000000 300.00000000 300.00000000 300.00000000 300.00000000 300.00000000 300.00000000 300.00000000 300.00000000 300.00000000 300.00000000 300.00000000 300.00000000 300.00000000 300.00000000 300.00000000 300.00000000 300.00000000 300.00000000 300.00000000 300.00000000 300.00000000 300.00000000 300.00000000 300.00000000 300.00000000 300.00000000 300.00000000 300.00000000 300.00000000 300.00000000 300.00000000 300.00000000 300.00000000 300.00000000 300.00000000 300.00000000 300.00000000 300.00000000 300.00000000 300.00000000 300.00000000 300.00000000 300.00000000 300.00000000 300.00000000 300.00000000 300.00000000 300.00000000 300.00000000 300.00000000 300.00000000 300.00000000 385.61661063 439.30687661 460.34203177 460.34203177 439.30687661 385.61661063 300.00000000 300.00000000 300.00000000 300.00000000 300.00000000 300.00000000 300.00000000 300.00000000 300.00000000 300.00000000 300.00000000 300.00000000 300.00000000 300.00000000 300.00000000 300.00000000 300.00000000 300.00000000 300.00000000 300.00000000 300.00000000 300.00000000 300.00000000 300.00000000 300.00000000 300.00000000 300.00000000 300.00000000 300.00000000 387.70611577 452.77353754 484.02585696 497.27638880 510.23925527 546.43250345 579.67509174 595.15606331 595.15606331 579.67509174 546.43250345 510.23925527 497.27638880 484.02585696 452.77353754 387.70611577 300.00000000 300.00000000 300.00000000 300.00000000 300.00000000 300.00000000 300.00000000 300.00000000 300.00000000 300.00000000 300.00000000 300.00000000 300.00000000 300.00000000 300.00000000 300.00000000 300.00000000 300.00000000 300.00000000 300.00000000 300.00000000 300.00000000 426.50793872 488.06724086 543.85893451 589.00683452 612.52253043 622.07391744 629.36549980 642.57317502 655.26619881 661.33647796 661.33647796 655.26619881 642.57317502 629.36549980 622.07391744 612.52253043 589.00683452 543.85893451 488.06724086 426.50793872 300.00000000 300.00000000 300.00000000 300.00000000 300.00000000 300.00000000 300.00000000 300.00000000 300.00000000 300.00000000 300.00000000 300.00000000 300.00000000 300.00000000 300.00000000 300.00000000 300.00000000 300.00000000 417.35808904 489.33039917 566.34670084 611.54764741 639.65149826 658.46576956 667.62772114 670.96803744 673.14154237 676.61034272 679.88725758 681.40213399 681.40213399 679.88725758 676.61034272 673.14154237 670.96803744 667.62772114 658.46576956 639.65149826 611.54764741 566.34670084 489.33039917 417.35808904 300.00000000 300.00000000 300.00000000 300.00000000 300.00000000 300.00000000 300.00000000 300.00000000 300.00000000 300.00000000 300.00000000 300.00000000 300.00000000 300.00000000 300.00000000 440.35943058 545.03854692 607.16030524 646.55511818 666.07190520 675.44339624 680.57440383 682.79986041 683.50011266 683.90664023 684.55613470 685.15068642 685.40576889 685.40576889 685.15068642 684.55613470 683.90664023 683.50011266 682.79986041 680.57440383 675.44339624 666.07190520 646.55511818 607.16030524 545.03854692 440.35943058 300.00000000 300.00000000 300.00000000 300.00000000 300.00000000 300.00000000 300.00000000 300.00000000 300.00000000 300.00000000 300.00000000 300.00000000 375.60655396 468.19271479 566.57933303 630.81499087 662.32855781 676.64148526 682.21145573 684.30499135 685.25238971 685.60988965 685.70303200 685.75325374 685.84121181 685.91809334 685.94731907 685.94731907 685.91809334 685.84121181 685.75325374 685.70303200 685.60988965 685.25238971 684.30499135 682.21145573 676.64148526 662.32855781 630.81499087 566.57933303 468.19271479 375.60655396 300.00000000 300.00000000 300.00000000 300.00000000 300.00000000 300.00000000 300.00000000 300.00000000 300.00000000 300.00000000 468.16276584 576.02378199 639.59393271 669.56065802 680.71324795 684.40455884 685.49275693 685.80921415 685.92874590 685.96709462 685.97486906 685.97900952 685.98767693 685.99470045 685.99690812 685.99690812 685.99470045 685.98767693 685.97900952 685.97486906 685.96709462 685.92874590 685.80921415 685.49275693 684.40455884 680.71324795 669.56065802 639.59393271 576.02378199 468.16276584 300.00000000 300.00000000 300.00000000 300.00000000 300.00000000 300.00000000 300.00000000 300.00000000 300.00000000 439.78243467 566.32570847 639.53746099 671.34837580 682.18655879 685.12015596 685.80726545 685.95329962 685.98525944 685.99546268 685.99813555 685.99851079 685.99873586 685.99935154 685.99978817 685.99988845 685.99988845 685.99978817 685.99935154 685.99873586 685.99851079 685.99813555 685.99546268 685.98525944 685.95329962 685.80726545 685.12015596 682.18655879 671.34837580 639.53746099 566.32570847 439.78243467 300.00000000 300.00000000 300.00000000 300.00000000 300.00000000 300.00000000 300.00000000 412.43897580 541.67229891 629.66838704 669.32049293 682.15400518 685.29641228 685.89098691 685.98400054 685.99717186 685.99925036 685.99982170 685.99993269 685.99994074 685.99994848 685.99997893 685.99999577 685.99999787 685.99999787 685.99999577 685.99997893 685.99994848 685.99994074 685.99993269 685.99982170 685.99925036 685.99717186 685.98400054 685.89098691 685.29641228 682.15400518 669.32049293 629.66838704 541.67229891 412.43897580 300.00000000 300.00000000 300.00000000 300.00000000 300.00000000 300.00000000 468.64579597 595.90335577 658.98605668 680.07375342 685.03789562 685.88410864 685.98923870 685.99910455 685.99989491 685.99997703 685.99999647 685.99999857 685.99999857 685.99999871 685.99999967 685.99999998 685.99999998 685.99999998 685.99999998 685.99999967 685.99999871 685.99999857 685.99999857 685.99999647 685.99997703 685.99989491 685.99910455 685.98923870 685.88410864 685.03789562 680.07375342 658.98605668 595.90335577 468.64579597 300.00000000 300.00000000 300.00000000 300.00000000 300.00000000 300.00000000 497.61776159 620.17242474 669.81259315 683.17779903 685.65134451 685.96993616 685.99822048 685.99992579 685.99999670 685.99999964 685.99999998 685.99999998 685.99999998 685.99999998 686.00000000 686.00000000 686.00000000 686.00000000 686.00000000 686.00000000 685.99999998 685.99999998 685.99999998 685.99999998 685.99999964 685.99999670 685.99992579 685.99822048 685.96993616 685.65134451 683.17779903 669.81259315 620.17242474 497.61776159 300.00000000 300.00000000 300.00000000 300.00000000 300.00000000 365.99500888 525.75316273 632.97856439 674.04284199 684.12356172 685.79448741 685.98453534 685.99922979 685.99997662 685.99999964 686.00000000 686.00000000 686.00000000 686.00000000 686.00000000 686.00000000 686.00000000 686.00000000 686.00000000 686.00000000 686.00000000 686.00000000 686.00000000 686.00000000 686.00000000 686.00000000 685.99999964 685.99997662 685.99922979 685.98453534 685.79448741 684.12356172 674.04284199 632.97856439 525.75316273 365.99500888 300.00000000 300.00000000 300.00000000 300.00000000 365.99500888 525.75316273 632.97856439 674.04284199 684.12356172 685.79448741 685.98453534 685.99922979 685.99997662 685.99999964 686.00000000 686.00000000 686.00000000 686.00000000 686.00000000 686.00000000 686.00000000 686.00000000 686.00000000 686.00000000 686.00000000 686.00000000 686.00000000 686.00000000 686.00000000 686.00000000 685.99999964 685.99997662 685.99922979 685.98453534 685.79448741 684.12356172 674.04284199 632.97856439 525.75316273 365.99500888 300.00000000 300.00000000 300.00000000 300.00000000 300.00000000 497.61776159 620.17242474 669.81259315 683.17779903 685.65134451 685.96993616 685.99822048 685.99992579 685.99999670 685.99999964 685.99999998 685.99999998 685.99999998 685.99999998 686.00000000 686.00000000 686.00000000 686.00000000 686.00000000 686.00000000 685.99999998 685.99999998 685.99999998 685.99999998 685.99999964 685.99999670 685.99992579 685.99822048 685.96993616 685.65134451 683.17779903 669.81259315 620.17242474 497.61776159 300.00000000 300.00000000 300.00000000 300.00000000 300.00000000 300.00000000 468.64579597 595.90335577 658.98605668 680.07375342 685.03789562 685.88410864 685.98923870 685.99910455 685.99989491 685.99997703 685.99999647 685.99999857 685.99999857 685.99999871 685.99999967 685.99999998 685.99999998 685.99999998 685.99999998 685.99999967 685.99999871 685.99999857 685.99999857 685.99999647 685.99997703 685.99989491 685.99910455 685.98923870 685.88410864 685.03789562 680.07375342 658.98605668 595.90335577 468.64579597 300.00000000 300.00000000 300.00000000 300.00000000 300.00000000 300.00000000 412.43897580 541.67229891 629.66838704 669.32049293 682.15400518 685.29641228 685.89098691 685.98400054 685.99717186 685.99925036 685.99982170 685.99993269 685.99994074 685.99994848 685.99997893 685.99999577 685.99999787 685.99999787 685.99999577 685.99997893 685.99994848 685.99994074 685.99993269 685.99982170 685.99925036 685.99717186 685.98400054 685.89098691 685.29641228 682.15400518 669.32049293 629.66838704 541.67229891 412.43897580 300.00000000 300.00000000 300.00000000 300.00000000 300.00000000 300.00000000 300.00000000 439.78243467 566.32570847 639.53746099 671.34837580 682.18655879 685.12015596 685.80726545 685.95329962 685.98525944 685.99546268 685.99813555 685.99851079 685.99873586 685.99935154 685.99978817 685.99988845 685.99988845 685.99978817 685.99935154 685.99873586 685.99851079 685.99813555 685.99546268 685.98525944 685.95329962 685.80726545 685.12015596 682.18655879 671.34837580 639.53746099 566.32570847 439.78243467 300.00000000 300.00000000 300.00000000 300.00000000 300.00000000 300.00000000 300.00000000 300.00000000 300.00000000 468.16276584 576.02378199 639.59393271 669.56065802 680.71324795 684.40455884 685.49275693 685.80921415 685.92874590 685.96709462 685.97486906 685.97900952 685.98767693 685.99470045 685.99690812 685.99690812 685.99470045 685.98767693 685.97900952 685.97486906 685.96709462 685.92874590 685.80921415 685.49275693 684.40455884 680.71324795 669.56065802 639.59393271 576.02378199 468.16276584 300.00000000 300.00000000 300.00000000 300.00000000 300.00000000 300.00000000 300.00000000 300.00000000 300.00000000 300.00000000 375.60655396 468.19271479 566.57933303 630.81499087 662.32855781 676.64148526 682.21145573 684.30499135 685.25238971 685.60988965 685.70303200 685.75325374 685.84121181 685.91809334 685.94731907 685.94731907 685.91809334 685.84121181 685.75325374 685.70303200 685.60988965 685.25238971 684.30499135 682.21145573 676.64148526 662.32855781 630.81499087 566.57933303 468.19271479 375.60655396 300.00000000 300.00000000 300.00000000 300.00000000 300.00000000 300.00000000 300.00000000 300.00000000 300.00000000 300.00000000 300.00000000 300.00000000 440.35943058 545.03854692 607.16030524 646.55511818 666.07190520 675.44339624 680.57440383 682.79986041 683.50011266 683.90664023 684.55613470 685.15068642 685.40576889 685.40576889 685.15068642 684.55613470 683.90664023 683.50011266 682.79986041 680.57440383 675.44339624 666.07190520 646.55511818 607.16030524 545.03854692 440.35943058 300.00000000 300.00000000 300.00000000 300.00000000 300.00000000 300.00000000 300.00000000 300.00000000 300.00000000 300.00000000 300.00000000 300.00000000 300.00000000 300.00000000 300.00000000 417.35808904 489.33039917 566.34670084 611.54764741 639.65149826 658.46576956 667.62772114 670.96803744 673.14154237 676.61034272 679.88725758 681.40213399 681.40213399 679.88725758 676.61034272 673.14154237 670.96803744 667.62772114 658.46576956 639.65149826 611.54764741 566.34670084 489.33039917 417.35808904 300.00000000 300.00000000 300.00000000 300.00000000 300.00000000 300.00000000 300.00000000 300.00000000 300.00000000 300.00000000 300.00000000 300.00000000 300.00000000 300.00000000 300.00000000 300.00000000 300.00000000 300.00000000 426.50793872 488.06724086 543.85893451 589.00683452 612.52253043 622.07391744 629.36549980 642.57317502 655.26619881 661.33647796 661.33647796 655.26619881 642.57317502 629.36549980 622.07391744 612.52253043 589.00683452 543.85893451 488.06724086 426.50793872 300.00000000 300.00000000 300.00000000 300.00000000 300.00000000 300.00000000 300.00000000 300.00000000 300.00000000 300.00000000 300.00000000 300.00000000 300.00000000 300.00000000 300.00000000 300.00000000 300.00000000 300.00000000 300.00000000 300.00000000 300.00000000 300.00000000 387.70611577 452.77353754 484.02585696 497.27638880 510.23925527 546.43250345 579.67509174 595.15606331 595.15606331 579.67509174 546.43250345 510.23925527 497.27638880 484.02585696 452.77353754 387.70611577 300.00000000 300.00000000 300.00000000 300.00000000 300.00000000 300.00000000 300.00000000 300.00000000 300.00000000 300.00000000 300.00000000 300.00000000 300.00000000 300.00000000 300.00000000 300.00000000 300.00000000 300.00000000 300.00000000 300.00000000 300.00000000 300.00000000 300.00000000 300.00000000 300.00000000 300.00000000 300.00000000 300.00000000 300.00000000 385.61661063 439.30687661 460.34203177 460.34203177 439.30687661 385.61661063 300.00000000 300.00000000 300.00000000 300.00000000 300.00000000 300.00000000 300.00000000 300.00000000 300.00000000 300.00000000 300.00000000 300.00000000 300.00000000 300.00000000 300.00000000 300.00000000 300.00000000 300.00000000 300.00000000 300.00000000 300.00000000 300.00000000 300.00000000 300.00000000 300.00000000 300.00000000 300.00000000 300.00000000 300.00000000 300.00000000 300.00000000 300.00000000 300.00000000 300.00000000 300.00000000 300.00000000 300.00000000 300.00000000 300.00000000 300.00000000 300.00000000 300.00000000 300.00000000 300.00000000 300.00000000 300.00000000 300.00000000 300.00000000 300.00000000 300.00000000 300.00000000 300.00000000 300.00000000 300.00000000 300.00000000 300.00000000 300.00000000 300.00000000 300.00000000 300.00000000 300.00000000 300.00000000 300.00000000 300.00000000 300.00000000 300.00000000 300.00000000 300.00000000 300.00000000 300.00000000 300.00000000 300.00000000 300.00000000 300.00000000 300.00000000 300.00000000 300.00000000 300.00000000 300.00000000 300.00000000 300.00000000 300.00000000 300.00000000 300.00000000 300.00000000 300.00000000 300.00000000 300.00000000 300.00000000 300.00000000 300.00000000 300.00000000 300.00000000 300.00000000 300.00000000 300.00000000 300.00000000 300.00000000 300.00000000 300.00000000 300.00000000 300.00000000 300.00000000 300.00000000 300.00000000 300.00000000 300.00000000 300.00000000 300.00000000 300.00000000 300.00000000 300.00000000 300.00000000 300.00000000 300.00000000 300.00000000 300.00000000 300.00000000 300.00000000 300.00000000 300.00000000 300.00000000 300.00000000 300.00000000 300.00000000 300.00000000 300.00000000 300.00000000 300.00000000 300.00000000 300.00000000 300.00000000 300.00000000 300.00000000 300.00000000 300.00000000 300.00000000 300.00000000 300.00000000 300.00000000 300.00000000 300.00000000 300.00000000 300.00000000 300.00000000 300.00000000 300.00000000 300.00000000 300.00000000 300.00000000 300.00000000 300.00000000 300.00000000 300.00000000 300.00000000 300.00000000 300.00000000 300.00000000 300.00000000 300.00000000 300.00000000 300.00000000 300.00000000 300.00000000 300.00000000 300.00000000 300.00000000 300.00000000 300.00000000 300.00000000 300.00000000 300.00000000 300.00000000 300.00000000 300.00000000 300.00000000 300.00000000 300.00000000 300.00000000 300.00000000 300.00000000 300.00000000 300.00000000 300.00000000 300.00000000 300.00000000 300.00000000 300.00000000 300.00000000 300.00000000 300.00000000 300.00000000 300.00000000 300.00000000 300.00000000 300.00000000 300.00000000 300.00000000 300.00000000 300.00000000 300.00000000 300.00000000 300.00000000 300.00000000 300.00000000 300.00000000 300.00000000 300.00000000 300.00000000 300.00000000 300.00000000 300.00000000 300.00000000 300.00000000 300.00000000 300.00000000 300.00000000 300.00000000 300.00000000 300.00000000 300.00000000 300.00000000 300.00000000 300.00000000 300.00000000 300.00000000 300.00000000 300.00000000 300.00000000 300.00000000 300.00000000 300.00000000 300.00000000 300.00000000 300.00000000 300.00000000 300.00000000 300.00000000 300.00000000 300.00000000 300.00000000 300.00000000 300.00000000 300.00000000 300.00000000 300.00000000 300.00000000 300.00000000 300.00000000 300.00000000 300.00000000 300.00000000 300.00000000 300.00000000 300.00000000 300.00000000 300.00000000 300.00000000 300.00000000 300.00000000 300.00000000 300.00000000 300.00000000 300.00000000 300.00000000 300.00000000 300.00000000 300.00000000 300.00000000 300.00000000 300.00000000 300.00000000 300.00000000 300.00000000 300.00000000 300.00000000 300.00000000 300.00000000 300.00000000 300.00000000 300.00000000 300.00000000 300.00000000 300.00000000 300.00000000 300.00000000 300.00000000 300.00000000 300.00000000 300.00000000 300.00000000 300.00000000 300.00000000 300.00000000 300.00000000 300.00000000 300.00000000 300.00000000 300.00000000 300.00000000 300.00000000 300.00000000 300.00000000 300.00000000 300.00000000 300.00000000 300.00000000 300.00000000 300.00000000 300.00000000 300.00000000 300.00000000 300.00000000 300.00000000 300.00000000 300.00000000 300.00000000 300.00000000 300.00000000 300.00000000 300.00000000 300.00000000 300.00000000 300.00000000 300.00000000 300.00000000 300.00000000 300.00000000 300.00000000 300.00000000 300.00000000 300.00000000 300.00000000 300.00000000 300.00000000 300.00000000 300.00000000 