# vtk DataFile Version 3.0
VTK - Matlab export
ASCII
DATASET STRUCTURED_POINTS
DIMENSIONS 40 40 1
SPACING 1 1 1
ORIGIN 0 0 0
POINT_DATA 1600
SCALARS Temperature float 1
LOOKUP_TABLE default
300.00000000 300.00000000 300.00000000 300.00000000 300.00000000 300.00000000 300.00000000 300.00000000 300.00000000 300.00000000 300.00000000 300.00000000 300.00000000 300.00000000 300.00000000 300.00000000 300.00000000 300.00000000 300.00000000 300.00000000 300.00000000 300.00000000 300.00000000 300.00000000 300.00000000 300.00000000 300.00000000 300.00000000 300.00000000 300.00000000 300.00000000 300.00000000 300.00000000 300.00000000 300.00000000 300.00000000 300.00000000 300.00000000 300.00000000 300.00000000 300.00000000 300.00000000 300.00000000 300.00000000 300.00000000 300.00000000 300.00000000 300.00000000 300.00000000 300.00000000 300.00000000 300.00000000 300.00000000 300.00000000 300.00000000 300.00000000 300.00000000 300.00000000 300.00000000 300.00000000 300.00000000 300.00000000 300.00000000 300.00000000 300.00000000 300.00000000 300.00000000 300.00000000 300.00000000 300.00000000 300.00000000 300.00000000 300.00000000 300.00000000 300.00000000 300.00000000 300.00000000 300.00000000 300.00000000 300.00000000 300.00000000 300.00000000 300.00000000 300.00000000 300.00000000 300.00000000 300.00000000 300.00000000 300.00000000 300.00000000 300.00000000 300.00000000 300.00000000 300.00000000 300.00000000 300.00000000 300.00000000 300.00000000 300.00000000 300.00000000 300.00000000 300.00000000 300.00000000 300.00000000 300.00000000 300.00000000 300.00000000 300.00000000 300.00000000 300.00000000 300.00000000 300.00000000 300.00000000 300.00000000 300.00000000 300.00000000 300.00000000 300.00000000 300.00000000 300.00000000 300.00000000 300.00000000 300.00000000 300.00000000 300.00000000 300.00000000 300.00000000 300.00000000 300.00000000 300.00000000 300.00000000 300.00000000 300.00000000 300.00000000 300.00000000 300.00000000 300.00000000 300.00000000 300.00000000 300.00000000 300.00000000 300.00000000 300.00000000 300.00000000 300.00000000 300.00000000 300.00000000 300.00000000 300.00000000 300.00000000 300.00000000 300.00000000 300.00000000 300.00000000 300.00000000 300.00000000 300.00000000 300.00000000 300.00000000 300.00000000 300.00000000 300.00000000 300.00000000 300.00000000 300.00000000 300.00000000 300.00000000 300.00000000 300.00000000 300.00000000 300.00000000 300.00000000 300.00000000 300.00000000 300.00000000 300.00000000 300.00000000 300.00000000 300.00000000 300.00000000 300.00000000 300.00000000 300.00000000 300.00000000 300.00000000 300.00000000 300.00000000 300.00000000 300.00000000 300.00000000 300.00000000 300.00000000 300.00000000 300.00000000 300.00000000 300.00000000 300.00000000 300.00000000 300.00000000 300.00000000 300.00000000 300.00000000 300.00000000 300.00000000 300.00000000 300.00000000 300.00000000 300.00000000 300.00000000 300.00000000 300.00000000 300.00000000 300.00000000 300.00000000 300.00000000 300.00000000 300.00000000 300.00000000 300.00000000 300.00000000 300.00000000 300.00000000 300.00000000 300.00000000 300.00000000 300.00000000 300.00000000 300.00000000 300.00000000 300.00000000 300.00000000 300.00000000 300.00000000 300.00000000 300.00000000 300.00000000 300.00000000 300.00000000 300.00000000 300.00000000 300.00000000 300.00000000 300.00000000 300.00000000 300.00000000 300.00000000 300.00000000 300.00000000 300.00000000 300.00000000 300.00000000 300.00000000 300.00000000 300.00000000 300.00000000 300.00000000 300.00000000 300.00000000 300.00000000 300.00000000 300.00000000 300.00000000 300.00000000 300.00000000 300.00000000 300.00000000 300.00000000 300.00000000 300.00000000 300.00000000 300.00000000 300.00000000 300.00000000 300.00000000 300.00000000 300.00000000 300.00000000 300.00000000 300.00000000 300.00000000 300.00000000 300.00000000 300.00000000 300.00000000 300.00000000 300.00000000 300.00000000 300.00000000 300.00000000 300.00000000 300.00000000 300.00000000 300.00000000 300.00000000 300.00000000 300.00000000 300.00000000 300.00000000 300.00000000 300.00000000 300.00000000 300.00000000 300.00000000 300.00000000 300.00000000 300.00000000 300.00000000 300.00000000 300.00000000 300.00000000 300.00000000 300.00000000 300.00000000 300.00000000 300.00000000 300.00000000 300.00000000 300.00000000 300.00000000 300.00000000 300.00000000 300.00000000 300.00000000 300.00000000 300.00000000 300.00000000 300.00000000 300.00000000 300.00000000 300.00000000 300.00000000 300.00000000 300.00000000 300.00000000 300.00000000 300.00000000 300.00000000 358.16528135 392.19245156 405.51726866 405.51726866 392.19245156 358.16528135 300.00000000 300.00000000 300.00000000 300.00000000 300.00000000 300.00000000 300.00000000 300.00000000 300.00000000 300.00000000 300.00000000 300.00000000 300.00000000 300.00000000 300.00000000 300.00000000 300.00000000 300.00000000 300.00000000 300.00000000 300.00000000 300.00000000 300.00000000 300.00000000 300.00000000 300.00000000 300.00000000 300.00000000 300.00000000 360.08040537 405.06187668 430.07174274 444.32307206 457.38053230 483.81957856 507.33607749 519.21951933 519.21951933 507.33607749 483.81957856 457.38053230 444.32307206 430.07174274 405.06187668 360.08040537 300.00000000 300.00000000 300.00000000 300.00000000 300.00000000 300.00000000 300.00000000 300.00000000 300.00000000 300.00000000 300.00000000 300.00000000 300.00000000 300.00000000 300.00000000 300.00000000 300.00000000 300.00000000 300.00000000 300.00000000 300.00000000 300.00000000 387.57667886 434.61456274 480.07944928 519.37445418 545.27675200 560.94173078 572.95462657 587.04164991 599.87899149 606.96431389 606.96431389 599.87899149 587.04164991 572.95462657 560.94173078 545.27675200 519.37445418 480.07944928 434.61456274 387.57667886 300.00000000 300.00000000 300.00000000 300.00000000 300.00000000 300.00000000 300.00000000 300.00000000 300.00000000 300.00000000 300.00000000 300.00000000 300.00000000 300.00000000 300.00000000 300.00000000 300.00000000 300.00000000 380.48245582 435.93262228 499.16859789 545.11247110 579.78628390 606.05773210 623.25996640 633.51280941 640.56189134 647.18198203 652.92172697 656.15347360 656.15347360 652.92172697 647.18198203 640.56189134 633.51280941 623.25996640 606.05773210 579.78628390 545.11247110 499.16859789 435.93262228 380.48245582 300.00000000 300.00000000 300.00000000 300.00000000 300.00000000 300.00000000 300.00000000 300.00000000 300.00000000 300.00000000 300.00000000 300.00000000 300.00000000 300.00000000 300.00000000 399.24261787 479.90079805 540.15176700 587.56652661 619.84728910 640.97333224 654.87090309 663.35522760 668.15625502 671.18000193 673.69403201 675.76888749 676.93308690 676.93308690 675.76888749 673.69403201 671.18000193 668.15625502 663.35522760 654.87090309 640.97333224 619.84728910 587.56652661 540.15176700 479.90079805 399.24261787 300.00000000 300.00000000 300.00000000 300.00000000 300.00000000 300.00000000 300.00000000 300.00000000 300.00000000 300.00000000 300.00000000 300.00000000 350.24435104 418.62554179 500.27472300 566.34202411 612.21596409 642.16913630 660.04825332 670.23991155 676.08835163 679.34112511 681.05645278 682.05344307 682.81788608 683.42516768 683.76226293 683.76226293 683.42516768 682.81788608 682.05344307 681.05645278 679.34112511 676.08835163 670.23991155 660.04825332 642.16913630 612.21596409 566.34202411 500.27472300 418.62554179 350.24435104 300.00000000 300.00000000 300.00000000 300.00000000 300.00000000 300.00000000 300.00000000 300.00000000 300.00000000 300.00000000 418.24908562 508.10567387 577.90129045 625.28691605 653.70605993 669.39480594 677.44759757 681.41747787 683.40141541 684.39456938 684.87710555 685.13649710 685.32392774 685.46880176 685.54817269 685.54817269 685.46880176 685.32392774 685.13649710 684.87710555 684.39456938 683.40141541 681.41747787 677.44759757 669.39480594 653.70605993 625.28691605 577.90129045 508.10567387 418.24908562 300.00000000 300.00000000 300.00000000 300.00000000 300.00000000 300.00000000 300.00000000 300.00000000 300.00000000 397.06432998 498.43640794 577.04874316 628.93502362 658.59353429 673.61657659 680.58461605 683.61303234 684.88709731 685.43654503 685.68142292 685.79004225 685.84404951 685.88139122 685.90974215 685.92505147 685.92505147 685.90974215 685.88139122 685.84404951 685.79004225 685.68142292 685.43654503 684.88709731 683.61303234 680.58461605 673.61657659 658.59353429 628.93502362 577.04874316 498.43640794 397.06432998 300.00000000 300.00000000 300.00000000 300.00000000 300.00000000 300.00000000 300.00000000 373.30012048 471.87778807 561.17596168 622.94671300 657.86259630 674.64166349 681.72774939 684.44860649 685.42873120 685.77288289 685.89863805 685.94784424 685.96758958 685.97666380 685.98274977 685.98732543 685.98975527 685.98975527 685.98732543 685.98274977 685.97666380 685.96758958 685.94784424 685.89863805 685.77288289 685.42873120 684.44860649 681.72774939 674.64166349 657.86259630 622.94671300 561.17596168 471.87778807 373.30012048 300.00000000 300.00000000 300.00000000 300.00000000 300.00000000 300.00000000 413.32444263 520.54854797 601.27785490 649.15354680 672.14129400 681.38054409 684.59168232 685.59027240 685.87891303 685.96036551 685.98472573 685.99290352 685.99583806 685.99708188 685.99790129 685.99851495 685.99883400 685.99883400 685.99851495 685.99790129 685.99708188 685.99583806 685.99290352 685.98472573 685.96036551 685.87891303 685.59027240 684.59168232 681.38054409 672.14129400 649.15354680 601.27785490 520.54854797 413.32444263 300.00000000 300.00000000 300.00000000 300.00000000 300.00000000 300.00000000 437.09796562 548.86297336 623.22117751 662.09998087 678.33043188 683.88507395 685.48527395 685.88462585 685.97430810 685.99354003 685.99794262 685.99915015 685.99952926 685.99967624 685.99977262 685.99984515 685.99988190 685.99988190 685.99984515 685.99977262 685.99967624 685.99952926 685.99915015 685.99794262 685.99354003 685.97430810 685.88462585 685.48527395 683.88507395 678.33043188 662.09998087 623.22117751 548.86297336 437.09796562 300.00000000 300.00000000 300.00000000 300.00000000 300.00000000 342.50915100 457.22150372 563.51717860 632.95413794 667.27096924 680.54499518 684.67224341 685.72550546 685.95041111 685.99164691 685.99846726 685.99961951 685.99986226 685.99992627 685.99994896 685.99996505 685.99997779 685.99998411 685.99998411 685.99997779 685.99996505 685.99994896 685.99992627 685.99986226 685.99961951 685.99846726 685.99164691 685.95041111 685.72550546 684.67224341 680.54499518 667.27096924 632.95413794 563.51717860 457.22150372 342.50915100 300.00000000 300.00000000 300.00000000 300.00000000 342.50915100 457.22150372 563.51717860 632.95413794 667.27096924 680.54499518 684.67224341 685.72550546 685.95041111 685.99164691 685.99846726 685.99961951 685.99986226 685.99992627 685.99994896 685.99996505 685.99997779 685.99998411 685.99998411 685.99997779 685.99996505 685.99994896 685.99992627 685.99986226 685.99961951 685.99846726 685.99164691 685.95041111 685.72550546 684.67224341 680.54499518 667.27096924 632.95413794 563.51717860 457.22150372 342.50915100 300.00000000 300.00000000 300.00000000 300.00000000 300.00000000 437.09796562 548.86297336 623.22117751 662.09998087 678.33043188 683.88507395 685.48527395 685.88462585 685.97430810 685.99354003 685.99794262 685.99915015 685.99952926 685.99967624 685.99977262 685.99984515 685.99988190 685.99988190 685.99984515 685.99977262 685.99967624 685.99952926 685.99915015 685.99794262 685.99354003 685.97430810 685.88462585 685.48527395 683.88507395 678.33043188 662.09998087 623.22117751 548.86297336 437.09796562 300.00000000 300.00000000 300.00000000 300.00000000 300.00000000 300.00000000 413.32444263 520.54854797 601.27785490 649.15354680 672.14129400 681.38054409 684.59168232 685.59027240 685.87891303 685.96036551 685.98472573 685.99290352 685.99583806 685.99708188 685.99790129 685.99851495 685.99883400 685.99883400 685.99851495 685.99790129 685.99708188 685.99583806 685.99290352 685.98472573 685.96036551 685.87891303 685.59027240 684.59168232 681.38054409 672.14129400 649.15354680 601.27785490 520.54854797 413.32444263 300.00000000 300.00000000 300.00000000 300.00000000 300.00000000 300.00000000 373.30012048 471.87778807 561.17596168 622.94671300 657.86259630 674.64166349 681.72774939 684.44860649 685.42873120 685.77288289 685.89863805 685.94784424 685.96758958 685.97666380 685.98274977 685.98732543 685.98975527 685.98975527 685.98732543 685.98274977 685.97666380 685.96758958 685.94784424 685.89863805 685.77288289 685.42873120 684.44860649 681.72774939 674.64166349 657.86259630 622.94671300 561.17596168 471.87778807 373.30012048 300.00000000 300.00000000 300.00000000 300.00000000 300.00000000 300.00000000 300.00000000 397.06432998 498.43640794 577.04874316 628.93502362 658.59353429 673.61657659 680.58461605 683.61303234 684.88709731 685.43654503 685.68142292 685.79004225 685.84404951 685.88139122 685.90974215 685.92505147 685.92505147 685.90974215 685.88139122 685.84404951 685.79004225 685.68142292 685.43654503 684.88709731 683.61303234 680.58461605 673.61657659 658.59353429 628.93502362 577.04874316 498.43640794 397.06432998 300.00000000 300.00000000 300.00000000 300.00000000 300.00000000 300.00000000 300.00000000 300.00000000 300.00000000 418.24908562 508.10567387 577.90129045 625.28691605 653.70605993 669.39480594 677.44759757 681.41747787 683.40141541 684.39456938 684.87710555 685.13649710 685.32392774 685.46880176 685.54817269 685.54817269 685.46880176 685.32392774 685.13649710 684.87710555 684.39456938 683.40141541 681.41747787 677.44759757 669.39480594 653.70605993 625.28691605 577.90129045 508.10567387 418.24908562 300.00000000 300.00000000 300.00000000 300.00000000 300.00000000 300.00000000 300.00000000 300.00000000 300.00000000 300.00000000 350.24435104 418.62554179 500.27472300 566.34202411 612.21596409 642.16913630 660.04825332 670.23991155 676.08835163 679.34112511 681.05645278 682.05344307 682.81788608 683.42516768 683.76226293 683.76226293 683.42516768 682.81788608 682.05344307 681.05645278 679.34112511 676.08835163 670.23991155 660.04825332 642.16913630 612.21596409 566.34202411 500.27472300 418.62554179 350.24435104 300.00000000 300.00000000 300.00000000 300.00000000 300.00000000 300.00000000 300.00000000 300.00000000 300.00000000 300.00000000 300.00000000 300.00000000 399.24261787 479.90079805 540.15176700 587.56652661 619.84728910 640.97333224 654.87090309 663.35522760 668.15625502 671.18000193 673.69403201 675.76888749 676.93308690 676.93308690 675.76888749 673.69403201 671.18000193 668.15625502 663.35522760 654.87090309 640.97333224 619.84728910 587.56652661 540.15176700 479.90079805 399.24261787 300.00000000 300.00000000 300.00000000 300.00000000 300.00000000 300.00000000 300.00000000 300.00000000 300.00000000 300.00000000 300.00000000 300.00000000 300.00000000 300.00000000 300.00000000 380.48245582 435.93262228 499.16859789 545.11247110 579.78628390 606.05773210 623.25996640 633.51280941 640.56189134 647.18198203 652.92172697 656.15347360 656.15347360 652.92172697 647.18198203 640.56189134 633.51280941 623.25996640 606.05773210 579.78628390 545.11247110 499.16859789 435.93262228 380.48245582 300.00000000 300.00000000 300.00000000 300.00000000 300.00000000 300.00000000 300.00000000 300.00000000 300.00000000 300.00000000 300.00000000 300.00000000 300.00000000 300.00000000 300.00000000 300.00000000 300.00000000 300.00000000 387.57667886 434.61456274 480.07944928 519.37445418 545.27675200 560.94173078 572.95462657 587.04164991 599.87899149 606.96431389 606.96431389 599.87899149 587.04164991 572.95462657 560.94173078 545.27675200 519.37445418 480.07944928 434.61456274 387.57667886 300.00000000 300.00000000 300.00000000 300.00000000 300.00000000 300.00000000 300.00000000 300.00000000 300.00000000 300.00000000 300.00000000 300.00000000 300.00000000 300.00000000 300.00000000 300.00000000 300.00000000 300.00000000 300.00000000 300.00000000 300.00000000 300.00000000 360.08040537 405.06187668 430.07174274 444.32307206 457.38053230 483.81957856 507.33607749 519.21951933 519.21951933 507.33607749 483.81957856 457.38053230 444.32307206 430.07174274 405.06187668 360.08040537 300.00000000 300.00000000 300.00000000 300.00000000 300.00000000 300.00000000 300.00000000 300.00000000 300.00000000 300.00000000 300.00000000 300.00000000 300.00000000 300.00000000 300.00000000 300.00000000 300.00000000 300.00000000 300.00000000 300.00000000 300.00000000 300.00000000 300.00000000 300.00000000 300.00000000 300.00000000 300.00000000 300.00000000 300.00000000 358.16528135 392.19245156 405.51726866 405.51726866 392.19245156 358.16528135 300.00000000 300.00000000 300.00000000 300.00000000 300.00000000 300.00000000 300.00000000 300.00000000 300.00000000 300.00000000 300.00000000 300.00000000 300.00000000 300.00000000 300.00000000 300.00000000 300.00000000 300.00000000 300.00000000 300.00000000 300.00000000 300.00000000 300.00000000 300.00000000 300.00000000 300.00000000 300.00000000 300.00000000 300.00000000 300.00000000 300.00000000 300.00000000 300.00000000 300.00000000 300.00000000 300.00000000 300.00000000 300.00000000 300.00000000 300.00000000 300.00000000 300.00000000 300.00000000 300.00000000 300.00000000 300.00000000 300.00000000 300.00000000 300.00000000 300.00000000 300.00000000 300.00000000 300.00000000 300.00000000 300.00000000 300.00000000 300.00000000 300.00000000 300.00000000 300.00000000 300.00000000 300.00000000 300.00000000 300.00000000 300.00000000 300.00000000 300.00000000 300.00000000 300.00000000 300.00000000 300.00000000 300.00000000 300.00000000 300.00000000 300.00000000 300.00000000 300.00000000 300.00000000 300.00000000 300.00000000 300.00000000 300.00000000 300.00000000 300.00000000 300.00000000 300.00000000 300.00000000 300.00000000 300.00000000 300.00000000 300.00000000 300.00000000 300.00000000 300.00000000 300.00000000 300.00000000 300.00000000 300.00000000 300.00000000 300.00000000 300.00000000 300.00000000 300.00000000 300.00000000 300.00000000 300.00000000 300.00000000 300.00000000 300.00000000 300.00000000 300.00000000 300.00000000 300.00000000 300.00000000 300.00000000 300.00000000 300.00000000 300.00000000 300.00000000 300.00000000 300.00000000 300.00000000 300.00000000 300.00000000 300.00000000 300.00000000 300.00000000 300.00000000 300.00000000 300.00000000 300.00000000 300.00000000 300.00000000 300.00000000 300.00000000 300.00000000 300.00000000 300.00000000 300.00000000 300.00000000 300.00000000 300.00000000 300.00000000 300.00000000 300.00000000 300.00000000 300.00000000 300.00000000 300.00000000 300.00000000 300.00000000 300.00000000 300.00000000 300.00000000 300.00000000 300.00000000 300.00000000 300.00000000 300.00000000 300.00000000 300.00000000 300.00000000 300.00000000 300.00000000 300.00000000 300.00000000 300.00000000 300.00000000 300.00000000 300.00000000 300.00000000 300.00000000 300.00000000 300.00000000 300.00000000 300.00000000 300.00000000 300.00000000 300.00000000 300.00000000 300.00000000 300.00000000 300.00000000 300.00000000 300.00000000 300.00000000 300.00000000 300.00000000 300.00000000 300.00000000 300.00000000 300.00000000 300.00000000 300.00000000 300.00000000 300.00000000 300.00000000 300.00000000 300.00000000 300.00000000 300.00000000 300.00000000 300.00000000 300.00000000 300.00000000 300.00000000 300.00000000 300.00000000 300.00000000 300.00000000 300.00000000 300.00000000 300.00000000 300.00000000 300.00000000 300.00000000 300.00000000 300.00000000 300.00000000 300.00000000 300.00000000 300.00000000 300.00000000 300.00000000 300.00000000 300.00000000 300.00000000 300.00000000 300.00000000 300.00000000 300.00000000 300.00000000 300.00000000 300.00000000 300.00000000 300.00000000 300.00000000 300.00000000 300.00000000 300.00000000 300.00000000 300.00000000 300.00000000 300.00000000 300.00000000 300.00000000 300.00000000 300.00000000 300.00000000 300.00000000 300.00000000 300.00000000 300.00000000 300.00000000 300.00000000 300.00000000 300.00000000 300.00000000 300.00000000 300.00000000 300.00000000 300.00000000 300.00000000 300.00000000 300.00000000 300.00000000 300.00000000 300.00000000 300.00000000 300.00000000 300.00000000 300.00000000 300.00000000 300.00000000 300.00000000 300.00000000 300.00000000 300.00000000 300.00000000 300.00000000 300.00000000 300.00000000 300.00000000 300.00000000 300.00000000 300.00000000 300.00000000 300.00000000 300.00000000 300.00000000 300.00000000 300.00000000 300.00000000 300.00000000 300.00000000 300.00000000 300.00000000 300.00000000 300.00000000 300.00000000 300.00000000 300.00000000 300.00000000 300.00000000 300.00000000 300.00000000 300.00000000 300.00000000 300.00000000 300.00000000 300.00000000 300.00000000 300.00000000 300.00000000 300.00000000 300.00000000 300.00000000 300.00000000 300.00000000 300.00000000 300.00000000 300.00000000 300.00000000 300.00000000 300.00000000 300.00000000 300.00000000 300.00000000 300.00000000 300.00000000 300.00000000 300.00000000 300.00000000 300.00000000 300.00000000 300.00000000 300.00000000 