# vtk DataFile Version 3.0
VTK - Matlab export
ASCII
DATASET STRUCTURED_POINTS
DIMENSIONS 40 40 1
SPACING 1 1 1
ORIGIN 0 0 0
POINT_DATA 1600
SCALARS lambda-2 float 1
LOOKUP_TABLE default
7.22156776 7.22156776 7.22156776 7.22156776 7.22156776 7.22156776 7.22156776 7.22156776 7.22156776 7.22156776 7.22156776 7.22156776 7.22156776 7.22156776 7.22156776 7.22156776 7.22156776 7.22156776 7.22156776 7.22156776 7.22156776 7.22156776 7.22156776 7.22156776 7.22156776 7.22156776 7.22156776 7.22156776 7.22156776 7.22156776 7.22156776 7.22156776 7.22156776 7.22156776 7.22156776 7.22156776 7.22156776 7.22156776 7.22156776 7.22156776 7.22156776 7.22156776 7.22156776 7.22156776 7.22156776 7.22156776 7.22156776 7.22156776 7.22156776 7.22156776 7.22156776 7.22156776 7.22156776 7.22156776 7.22156776 7.22156776 7.22156776 7.22156776 7.22156776 7.22156776 7.22156776 7.22156776 7.22156776 7.22156776 7.22156776 7.22156776 7.22156776 7.22156776 7.22156776 7.22156776 7.22156776 7.22156776 7.22156776 7.22156776 7.22156776 7.22156776 7.22156776 7.22156776 7.22156776 7.22156776 7.22156776 7.22156776 7.22156776 7.22156776 7.22156776 7.22156776 7.22156776 7.22156776 7.22156776 7.22156776 7.22156776 7.22156776 7.22156776 7.22156776 7.22156776 7.22156776 7.22156776 7.22156776 7.22156776 7.22156776 7.22156776 7.22156776 7.22156776 7.22156776 7.22156776 7.22156776 7.22156776 7.22156776 7.22156776 7.22156776 7.22156776 7.22156776 7.22156776 7.22156776 7.22156776 7.22156776 7.22156776 7.22156776 7.22156776 7.22156776 7.22156776 7.22156776 7.22156776 7.22156776 7.22156776 7.22156776 7.22156776 7.22156776 7.22156776 7.22156776 7.22156776 7.22156776 7.22156776 7.22156776 7.22156776 7.22156776 7.22156776 7.22156776 7.22156776 7.22156776 7.22156776 7.22156776 7.22156776 7.22156776 7.22156776 7.22156776 7.22156776 7.22156776 7.22156776 7.22156776 7.22156776 7.22156776 7.22156776 7.22156776 7.22156776 7.22156776 7.22156776 7.22156776 7.22156776 7.22156776 7.22156776 7.22156776 7.22156776 7.22156776 7.22156776 7.22156776 7.22156776 7.22156776 7.22156776 7.22156776 7.22156776 7.22156776 7.22156776 7.22156776 7.22156776 7.22156776 7.22156776 7.22156776 7.22156776 7.22156776 7.22156776 7.22156776 7.22156776 7.22156776 7.22156776 7.22156776 7.22156776 7.22156776 7.22156776 7.22156776 7.22156776 7.22156776 7.22156776 7.22156776 7.22156776 7.22156776 7.22156776 7.22156776 7.22156776 7.22156776 7.22156776 7.22156776 7.22156776 7.22156776 7.22156776 7.22156776 7.22156776 7.22156776 7.22156776 7.22156776 7.22156776 7.22156776 7.22156776 7.22156776 7.22156776 7.22156776 7.22156776 7.22156776 7.22156776 7.22156776 7.22156776 7.22156776 7.22156776 7.22156776 7.22156776 7.22156776 7.22156776 7.22156776 7.22156776 7.22156776 7.22156776 7.22156776 7.22156776 7.22156776 7.22156776 7.22156776 7.22156776 7.22156776 7.22156776 7.22156776 7.22156776 7.22156776 7.22156776 7.22156776 7.22156776 7.22156776 7.22156776 7.22156776 7.22156776 7.22156776 7.22156776 7.22156776 7.22156776 7.22156776 7.22156776 7.22156776 7.22156776 7.22156776 7.22156776 7.22156776 7.22156776 7.22156776 7.22156776 7.22156776 7.22156776 7.22156776 7.22156776 7.22156776 7.22156776 7.22156776 7.22156776 7.22156776 7.22156776 7.22156776 7.22156776 7.22156776 7.22156776 7.22156776 7.22156776 7.22156776 7.22156776 7.22156776 7.22156776 7.22156776 7.22156776 7.22156776 7.22156776 7.22156776 7.22156776 7.22156776 7.22156776 7.22156776 7.22156776 7.22156776 7.22156776 7.22156776 7.22156776 7.22156776 7.22156776 7.22156776 7.22156776 7.22156776 7.22156776 7.22156776 7.22156776 7.22156776 7.22156776 7.22156776 7.22156776 7.22156776 7.22156776 7.22156776 7.22156776 7.22156776 7.22156776 7.22156776 7.22156776 7.22156776 7.22156776 7.22156776 7.22156776 7.22156776 7.22156776 7.22156776 7.22156776 7.22156776 7.22156776 7.22156776 7.22156776 7.22156776 7.22156776 7.22156776 7.22156776 7.22156776 7.22156776 7.22156776 7.22156776 7.22093152 7.22059123 7.22046738 7.22046738 7.22059123 7.22093152 7.22156776 7.22156776 7.22156776 7.22156776 7.22156776 7.22156776 7.22156776 7.22156776 7.22156776 7.22156776 7.22156776 7.22156776 7.22156776 7.22156776 7.22156776 7.22156776 7.22156776 7.22156776 7.22156776 7.22156776 7.22156776 7.22156776 7.22156776 7.22156776 7.22156776 7.22156776 7.22156776 7.22156776 7.22156776 7.22089957 7.22039827 7.22009202 7.21988580 7.21969958 7.21939965 7.21915848 7.21904275 7.21904275 7.21915848 7.21939965 7.21969958 7.21988580 7.22009202 7.22039827 7.22089957 7.22156776 7.22156776 7.22156776 7.22156776 7.22156776 7.22156776 7.22156776 7.22156776 7.22156776 7.22156776 7.22156776 7.22156776 7.22156776 7.22156776 7.22156776 7.22156776 7.22156776 7.22156776 7.22156776 7.22156776 7.22156776 7.22156776 7.22058151 7.22001519 7.21943847 7.21890954 7.21850257 7.21819750 7.21795097 7.21772271 7.21754630 7.21745485 7.21745485 7.21754630 7.21772271 7.21795097 7.21819750 7.21850257 7.21890954 7.21943847 7.22001519 7.22058151 7.22156776 7.22156776 7.22156776 7.22156776 7.22156776 7.22156776 7.22156776 7.22156776 7.22156776 7.22156776 7.22156776 7.22156776 7.22156776 7.22156776 7.22156776 7.22156776 7.22156776 7.22156776 7.22066082 7.21998160 7.21916173 7.21846366 7.21784673 7.21731062 7.21687923 7.21654647 7.21629005 7.21609044 7.21594989 7.21587777 7.21587777 7.21594989 7.21609044 7.21629005 7.21654647 7.21687923 7.21731062 7.21784673 7.21846366 7.21916173 7.21998160 7.22066082 7.22156776 7.22156776 7.22156776 7.22156776 7.22156776 7.22156776 7.22156776 7.22156776 7.22156776 7.22156776 7.22156776 7.22156776 7.22156776 7.22156776 7.22156776 7.22042880 7.21941890 7.21851594 7.21765877 7.21690786 7.21626938 7.21574153 7.21532486 7.21500897 7.21477573 7.21460831 7.21449843 7.21444386 7.21444386 7.21449843 7.21460831 7.21477573 7.21500897 7.21532486 7.21574153 7.21626938 7.21690786 7.21765877 7.21851594 7.21941890 7.22042880 7.22156776 7.22156776 7.22156776 7.22156776 7.22156776 7.22156776 7.22156776 7.22156776 7.22156776 7.22156776 7.22156776 7.22156776 7.22103025 7.22022638 7.21914624 7.21807171 7.21707601 7.21618128 7.21541657 7.21479021 7.21429728 7.21392637 7.21365943 7.21347481 7.21335252 7.21327807 7.21324285 7.21324285 7.21327807 7.21335252 7.21347481 7.21365943 7.21392637 7.21429728 7.21479021 7.21541657 7.21618128 7.21707601 7.21807171 7.21914624 7.22022638 7.22103025 7.22156776 7.22156776 7.22156776 7.22156776 7.22156776 7.22156776 7.22156776 7.22156776 7.22156776 7.22156776 7.22026946 7.21909533 7.21790363 7.21675754 7.21571329 7.21480662 7.21405950 7.21347573 7.21304423 7.21274434 7.21254967 7.21243231 7.21236703 7.21233424 7.21232103 7.21232103 7.21233424 7.21236703 7.21243231 7.21254967 7.21274434 7.21304423 7.21347573 7.21405950 7.21480662 7.21571329 7.21675754 7.21790363 7.21909533 7.22026946 7.22156776 7.22156776 7.22156776 7.22156776 7.22156776 7.22156776 7.22156776 7.22156776 7.22156776 7.22055832 7.21932097 7.21803395 7.21675734 7.21555791 7.21449197 7.21359721 7.21289137 7.21237219 7.21202104 7.21180845 7.21169973 7.21166003 7.21165849 7.21167099 7.21168128 7.21168128 7.21167099 7.21165849 7.21166003 7.21169973 7.21180845 7.21202104 7.21237219 7.21289137 7.21359721 7.21449197 7.21555791 7.21675734 7.21803395 7.21932097 7.22055832 7.22156776 7.22156776 7.22156776 7.22156776 7.22156776 7.22156776 7.22156776 7.22086281 7.21977109 7.21847242 7.21710605 7.21576736 7.21453387 7.21346501 7.21259811 7.21194683 7.21150254 7.21123889 7.21111816 7.21109791 7.21113673 7.21119862 7.21125556 7.21128873 7.21128873 7.21125556 7.21119862 7.21113673 7.21109791 7.21111816 7.21123889 7.21150254 7.21194683 7.21259811 7.21346501 7.21453387 7.21576736 7.21710605 7.21847242 7.21977109 7.22086281 7.22156776 7.22156776 7.22156776 7.22156776 7.22156776 7.22156776 7.22046752 7.21920074 7.21780447 7.21636847 7.21498407 7.21373107 7.21266997 7.21183680 7.21124127 7.21086895 7.21068661 7.21064945 7.21070851 7.21081693 7.21093449 7.21103014 7.21108314 7.21108314 7.21103014 7.21093449 7.21081693 7.21070851 7.21064945 7.21068661 7.21086895 7.21124127 7.21183680 7.21266997 7.21373107 7.21498407 7.21636847 7.21780447 7.21920074 7.22046752 7.22156776 7.22156776 7.22156776 7.22156776 7.22156776 7.22156776 7.22021510 7.21881872 7.21734480 7.21585789 7.21444336 7.21318063 7.21213013 7.21132640 7.21077601 7.21046008 7.21034024 7.21036650 7.21048516 7.21064549 7.21080431 7.21092854 7.21099612 7.21099612 7.21092854 7.21080431 7.21064549 7.21048516 7.21036650 7.21034024 7.21046008 7.21077601 7.21132640 7.21213013 7.21318063 7.21444336 7.21585789 7.21734480 7.21881872 7.22021510 7.22156776 7.22156776 7.22156776 7.22156776 7.22156776 7.22116890 7.22001149 7.21861074 7.21710766 7.21559653 7.21416755 7.21290113 7.21185773 7.21107100 7.21054577 7.21026075 7.21017482 7.21023524 7.21038584 7.21057386 7.21075462 7.21089399 7.21096930 7.21096930 7.21089399 7.21075462 7.21057386 7.21038584 7.21023524 7.21017482 7.21026075 7.21054577 7.21107100 7.21185773 7.21290113 7.21416755 7.21559653 7.21710766 7.21861074 7.22001149 7.22116890 7.22156776 7.22156776 7.22156776 7.22156776 7.22116890 7.22001149 7.21861074 7.21710766 7.21559653 7.21416755 7.21290113 7.21185773 7.21107100 7.21054577 7.21026075 7.21017482 7.21023524 7.21038584 7.21057386 7.21075462 7.21089399 7.21096930 7.21096930 7.21089399 7.21075462 7.21057386 7.21038584 7.21023524 7.21017482 7.21026075 7.21054577 7.21107100 7.21185773 7.21290113 7.21416755 7.21559653 7.21710766 7.21861074 7.22001149 7.22116890 7.22156776 7.22156776 7.22156776 7.22156776 7.22156776 7.22021510 7.21881872 7.21734480 7.21585789 7.21444336 7.21318063 7.21213013 7.21132640 7.21077601 7.21046008 7.21034024 7.21036650 7.21048516 7.21064549 7.21080431 7.21092854 7.21099612 7.21099612 7.21092854 7.21080431 7.21064549 7.21048516 7.21036650 7.21034024 7.21046008 7.21077601 7.21132640 7.21213013 7.21318063 7.21444336 7.21585789 7.21734480 7.21881872 7.22021510 7.22156776 7.22156776 7.22156776 7.22156776 7.22156776 7.22156776 7.22046752 7.21920074 7.21780447 7.21636847 7.21498407 7.21373107 7.21266997 7.21183680 7.21124127 7.21086895 7.21068661 7.21064945 7.21070851 7.21081693 7.21093449 7.21103014 7.21108314 7.21108314 7.21103014 7.21093449 7.21081693 7.21070851 7.21064945 7.21068661 7.21086895 7.21124127 7.21183680 7.21266997 7.21373107 7.21498407 7.21636847 7.21780447 7.21920074 7.22046752 7.22156776 7.22156776 7.22156776 7.22156776 7.22156776 7.22156776 7.22086281 7.21977109 7.21847242 7.21710605 7.21576736 7.21453387 7.21346501 7.21259811 7.21194683 7.21150254 7.21123889 7.21111816 7.21109791 7.21113673 7.21119862 7.21125556 7.21128873 7.21128873 7.21125556 7.21119862 7.21113673 7.21109791 7.21111816 7.21123889 7.21150254 7.21194683 7.21259811 7.21346501 7.21453387 7.21576736 7.21710605 7.21847242 7.21977109 7.22086281 7.22156776 7.22156776 7.22156776 7.22156776 7.22156776 7.22156776 7.22156776 7.22055832 7.21932097 7.21803395 7.21675734 7.21555791 7.21449197 7.21359721 7.21289137 7.21237219 7.21202104 7.21180845 7.21169973 7.21166003 7.21165849 7.21167099 7.21168128 7.21168128 7.21167099 7.21165849 7.21166003 7.21169973 7.21180845 7.21202104 7.21237219 7.21289137 7.21359721 7.21449197 7.21555791 7.21675734 7.21803395 7.21932097 7.22055832 7.22156776 7.22156776 7.22156776 7.22156776 7.22156776 7.22156776 7.22156776 7.22156776 7.22156776 7.22026946 7.21909533 7.21790363 7.21675754 7.21571329 7.21480662 7.21405950 7.21347573 7.21304423 7.21274434 7.21254967 7.21243231 7.21236703 7.21233424 7.21232103 7.21232103 7.21233424 7.21236703 7.21243231 7.21254967 7.21274434 7.21304423 7.21347573 7.21405950 7.21480662 7.21571329 7.21675754 7.21790363 7.21909533 7.22026946 7.22156776 7.22156776 7.22156776 7.22156776 7.22156776 7.22156776 7.22156776 7.22156776 7.22156776 7.22156776 7.22103025 7.22022638 7.21914624 7.21807171 7.21707601 7.21618128 7.21541657 7.21479021 7.21429728 7.21392637 7.21365943 7.21347481 7.21335252 7.21327807 7.21324285 7.21324285 7.21327807 7.21335252 7.21347481 7.21365943 7.21392637 7.21429728 7.21479021 7.21541657 7.21618128 7.21707601 7.21807171 7.21914624 7.22022638 7.22103025 7.22156776 7.22156776 7.22156776 7.22156776 7.22156776 7.22156776 7.22156776 7.22156776 7.22156776 7.22156776 7.22156776 7.22156776 7.22042880 7.21941890 7.21851594 7.21765877 7.21690786 7.21626938 7.21574153 7.21532486 7.21500897 7.21477573 7.21460831 7.21449843 7.21444386 7.21444386 7.21449843 7.21460831 7.21477573 7.21500897 7.21532486 7.21574153 7.21626938 7.21690786 7.21765877 7.21851594 7.21941890 7.22042880 7.22156776 7.22156776 7.22156776 7.22156776 7.22156776 7.22156776 7.22156776 7.22156776 7.22156776 7.22156776 7.22156776 7.22156776 7.22156776 7.22156776 7.22156776 7.22066082 7.21998160 7.21916173 7.21846366 7.21784673 7.21731062 7.21687923 7.21654647 7.21629005 7.21609044 7.21594989 7.21587777 7.21587777 7.21594989 7.21609044 7.21629005 7.21654647 7.21687923 7.21731062 7.21784673 7.21846366 7.21916173 7.21998160 7.22066082 7.22156776 7.22156776 7.22156776 7.22156776 7.22156776 7.22156776 7.22156776 7.22156776 7.22156776 7.22156776 7.22156776 7.22156776 7.22156776 7.22156776 7.22156776 7.22156776 7.22156776 7.22156776 7.22058151 7.22001519 7.21943847 7.21890954 7.21850257 7.21819750 7.21795097 7.21772271 7.21754630 7.21745485 7.21745485 7.21754630 7.21772271 7.21795097 7.21819750 7.21850257 7.21890954 7.21943847 7.22001519 7.22058151 7.22156776 7.22156776 7.22156776 7.22156776 7.22156776 7.22156776 7.22156776 7.22156776 7.22156776 7.22156776 7.22156776 7.22156776 7.22156776 7.22156776 7.22156776 7.22156776 7.22156776 7.22156776 7.22156776 7.22156776 7.22156776 7.22156776 7.22089957 7.22039827 7.22009202 7.21988580 7.21969958 7.21939965 7.21915848 7.21904275 7.21904275 7.21915848 7.21939965 7.21969958 7.21988580 7.22009202 7.22039827 7.22089957 7.22156776 7.22156776 7.22156776 7.22156776 7.22156776 7.22156776 7.22156776 7.22156776 7.22156776 7.22156776 7.22156776 7.22156776 7.22156776 7.22156776 7.22156776 7.22156776 7.22156776 7.22156776 7.22156776 7.22156776 7.22156776 7.22156776 7.22156776 7.22156776 7.22156776 7.22156776 7.22156776 7.22156776 7.22156776 7.22093152 7.22059123 7.22046738 7.22046738 7.22059123 7.22093152 7.22156776 7.22156776 7.22156776 7.22156776 7.22156776 7.22156776 7.22156776 7.22156776 7.22156776 7.22156776 7.22156776 7.22156776 7.22156776 7.22156776 7.22156776 7.22156776 7.22156776 7.22156776 7.22156776 7.22156776 7.22156776 7.22156776 7.22156776 7.22156776 7.22156776 7.22156776 7.22156776 7.22156776 7.22156776 7.22156776 7.22156776 7.22156776 7.22156776 7.22156776 7.22156776 7.22156776 7.22156776 7.22156776 7.22156776 7.22156776 7.22156776 7.22156776 7.22156776 7.22156776 7.22156776 7.22156776 7.22156776 7.22156776 7.22156776 7.22156776 7.22156776 7.22156776 7.22156776 7.22156776 7.22156776 7.22156776 7.22156776 7.22156776 7.22156776 7.22156776 7.22156776 7.22156776 7.22156776 7.22156776 7.22156776 7.22156776 7.22156776 7.22156776 7.22156776 7.22156776 7.22156776 7.22156776 7.22156776 7.22156776 7.22156776 7.22156776 7.22156776 7.22156776 7.22156776 7.22156776 7.22156776 7.22156776 7.22156776 7.22156776 7.22156776 7.22156776 7.22156776 7.22156776 7.22156776 7.22156776 7.22156776 7.22156776 7.22156776 7.22156776 7.22156776 7.22156776 7.22156776 7.22156776 7.22156776 7.22156776 7.22156776 7.22156776 7.22156776 7.22156776 7.22156776 7.22156776 7.22156776 7.22156776 7.22156776 7.22156776 7.22156776 7.22156776 7.22156776 7.22156776 7.22156776 7.22156776 7.22156776 7.22156776 7.22156776 7.22156776 7.22156776 7.22156776 7.22156776 7.22156776 7.22156776 7.22156776 7.22156776 7.22156776 7.22156776 7.22156776 7.22156776 7.22156776 7.22156776 7.22156776 7.22156776 7.22156776 7.22156776 7.22156776 7.22156776 7.22156776 7.22156776 7.22156776 7.22156776 7.22156776 7.22156776 7.22156776 7.22156776 7.22156776 7.22156776 7.22156776 7.22156776 7.22156776 7.22156776 7.22156776 7.22156776 7.22156776 7.22156776 7.22156776 7.22156776 7.22156776 7.22156776 7.22156776 7.22156776 7.22156776 7.22156776 7.22156776 7.22156776 7.22156776 7.22156776 7.22156776 7.22156776 7.22156776 7.22156776 7.22156776 7.22156776 7.22156776 7.22156776 7.22156776 7.22156776 7.22156776 7.22156776 7.22156776 7.22156776 7.22156776 7.22156776 7.22156776 7.22156776 7.22156776 7.22156776 7.22156776 7.22156776 7.22156776 7.22156776 7.22156776 7.22156776 7.22156776 7.22156776 7.22156776 7.22156776 7.22156776 7.22156776 7.22156776 7.22156776 7.22156776 7.22156776 7.22156776 7.22156776 7.22156776 7.22156776 7.22156776 7.22156776 7.22156776 7.22156776 7.22156776 7.22156776 7.22156776 7.22156776 7.22156776 7.22156776 7.22156776 7.22156776 7.22156776 7.22156776 7.22156776 7.22156776 7.22156776 7.22156776 7.22156776 7.22156776 7.22156776 7.22156776 7.22156776 7.22156776 7.22156776 7.22156776 7.22156776 7.22156776 7.22156776 7.22156776 7.22156776 7.22156776 7.22156776 7.22156776 7.22156776 7.22156776 7.22156776 7.22156776 7.22156776 7.22156776 7.22156776 7.22156776 7.22156776 7.22156776 7.22156776 7.22156776 7.22156776 7.22156776 7.22156776 7.22156776 7.22156776 7.22156776 7.22156776 7.22156776 7.22156776 7.22156776 7.22156776 7.22156776 7.22156776 7.22156776 7.22156776 7.22156776 7.22156776 7.22156776 7.22156776 7.22156776 7.22156776 7.22156776 7.22156776 7.22156776 7.22156776 7.22156776 7.22156776 7.22156776 7.22156776 7.22156776 7.22156776 7.22156776 7.22156776 7.22156776 7.22156776 7.22156776 7.22156776 7.22156776 7.22156776 7.22156776 7.22156776 7.22156776 7.22156776 7.22156776 7.22156776 7.22156776 7.22156776 7.22156776 7.22156776 7.22156776 7.22156776 7.22156776 7.22156776 7.22156776 7.22156776 7.22156776 7.22156776 7.22156776 7.22156776 7.22156776 7.22156776 7.22156776 7.22156776 7.22156776 7.22156776 7.22156776 7.22156776 7.22156776 7.22156776 7.22156776 7.22156776 7.22156776 7.22156776 7.22156776 7.22156776 7.22156776 7.22156776 7.22156776 7.22156776 7.22156776 7.22156776 7.22156776 