# vtk DataFile Version 3.0
VTK - Matlab export
ASCII
DATASET STRUCTURED_POINTS
DIMENSIONS 40 40 1
SPACING 1 1 1
ORIGIN 0 0 0
POINT_DATA 1600
SCALARS Temperature float 1
LOOKUP_TABLE default
300.00000000 300.00000000 300.00000000 300.00000000 300.00000000 300.00000000 300.00000000 300.00000000 300.00000000 300.00000000 300.00000000 300.00000000 300.00000000 300.00000000 300.00000000 300.00000000 300.00000000 300.00000000 300.00000000 300.00000000 300.00000000 300.00000000 300.00000000 300.00000000 300.00000000 300.00000000 300.00000000 300.00000000 300.00000000 300.00000000 300.00000000 300.00000000 300.00000000 300.00000000 300.00000000 300.00000000 300.00000000 300.00000000 300.00000000 300.00000000 300.00000000 300.00000000 300.00000000 300.00000000 300.00000000 300.00000000 300.00000000 300.00000000 300.00000000 300.00000000 300.00000000 300.00000000 300.00000000 300.00000000 300.00000000 300.00000000 300.00000000 300.00000000 300.00000000 300.00000000 300.00000000 300.00000000 300.00000000 300.00000000 300.00000000 300.00000000 300.00000000 300.00000000 300.00000000 300.00000000 300.00000000 300.00000000 300.00000000 300.00000000 300.00000000 300.00000000 300.00000000 300.00000000 300.00000000 300.00000000 300.00000000 300.00000000 300.00000000 300.00000000 300.00000000 300.00000000 300.00000000 300.00000000 300.00000000 300.00000000 300.00000000 300.00000000 300.00000000 300.00000000 300.00000000 300.00000000 300.00000000 300.00000000 300.00000000 300.00000000 300.00000000 300.00000000 300.00000000 300.00000000 300.00000000 300.00000000 300.00000000 300.00000000 300.00000000 300.00000000 300.00000000 300.00000000 300.00000000 300.00000000 300.00000000 300.00000000 300.00000000 300.00000000 300.00000000 300.00000000 300.00000000 300.00000000 300.00000000 300.00000000 300.00000000 300.00000000 300.00000000 300.00000000 300.00000000 300.00000000 300.00000000 300.00000000 300.00000000 300.00000000 300.00000000 300.00000000 300.00000000 300.00000000 300.00000000 300.00000000 300.00000000 300.00000000 300.00000000 300.00000000 300.00000000 300.00000000 300.00000000 300.00000000 300.00000000 300.00000000 300.00000000 300.00000000 300.00000000 300.00000000 300.00000000 300.00000000 300.00000000 300.00000000 300.00000000 300.00000000 300.00000000 300.00000000 300.00000000 300.00000000 300.00000000 300.00000000 300.00000000 300.00000000 300.00000000 300.00000000 300.00000000 300.00000000 300.00000000 300.00000000 300.00000000 300.00000000 300.00000000 300.00000000 300.00000000 300.00000000 300.00000000 300.00000000 300.00000000 300.00000000 300.00000000 300.00000000 300.00000000 300.00000000 300.00000000 300.00000000 300.00000000 300.00000000 300.00000000 300.00000000 300.00000000 300.00000000 300.00000000 300.00000000 300.00000000 300.00000000 300.00000000 300.00000000 300.00000000 300.00000000 300.00000000 300.00000000 300.00000000 300.00000000 300.00000000 300.00000000 300.00000000 300.00000000 300.00000000 300.00000000 300.00000000 300.00000000 300.00000000 300.00000000 300.00000000 300.00000000 300.00000000 300.00000000 300.00000000 300.00000000 300.00000000 300.00000000 300.00000000 300.00000000 300.00000000 300.00000000 300.00000000 300.00000000 300.00000000 300.00000000 300.00000000 300.00000000 300.00000000 300.00000000 300.00000000 300.00000000 300.00000000 300.00000000 300.00000000 300.00000000 300.00000000 300.00000000 300.00000000 300.00000000 300.00000000 300.00000000 300.00000000 300.00000000 300.00000000 300.00000000 300.00000000 300.00000000 300.00000000 300.00000000 300.00000000 300.00000000 300.00000000 300.00000000 300.00000000 300.00000000 300.00000000 300.00000000 300.00000000 300.00000000 300.00000000 300.00000000 300.00000000 300.00000000 300.00000000 300.00000000 300.00000000 300.00000000 300.00000000 300.00000000 300.00000000 300.00000000 300.00000000 300.00000000 300.00000000 300.00000000 300.00000000 300.00000000 300.00000000 300.00000000 300.00000000 300.00000000 300.00000000 300.00000000 300.00000000 300.00000000 300.00000000 300.00000000 300.00000000 300.00000000 300.00000000 300.00000000 300.00000000 300.00000000 300.00000000 300.00000000 300.00000000 300.00000000 300.00000000 300.00000000 300.00000000 300.00000000 300.00000000 300.00000000 300.00000000 300.00000000 300.00000000 300.00000000 300.00000000 300.00000000 300.00000000 300.00000000 300.00000000 300.00000000 300.00000000 300.00000000 300.00000000 300.00000000 300.00000000 300.00000000 300.00000000 300.00000000 300.00000000 300.00000000 300.00000000 300.00000000 300.00000000 300.00000000 300.00000000 319.94511727 330.67776525 334.60885141 334.60885141 330.67776525 319.94511727 300.00000000 300.00000000 300.00000000 300.00000000 300.00000000 300.00000000 300.00000000 300.00000000 300.00000000 300.00000000 300.00000000 300.00000000 300.00000000 300.00000000 300.00000000 300.00000000 300.00000000 300.00000000 300.00000000 300.00000000 300.00000000 300.00000000 300.00000000 300.00000000 300.00000000 300.00000000 300.00000000 300.00000000 300.00000000 320.13359886 335.53710219 345.22048008 351.96708402 358.15206475 367.87250206 375.69039473 379.46337745 379.46337745 375.69039473 367.87250206 358.15206475 351.96708402 345.22048008 335.53710219 320.13359886 300.00000000 300.00000000 300.00000000 300.00000000 300.00000000 300.00000000 300.00000000 300.00000000 300.00000000 300.00000000 300.00000000 300.00000000 300.00000000 300.00000000 300.00000000 300.00000000 300.00000000 300.00000000 300.00000000 300.00000000 300.00000000 300.00000000 328.98973238 346.05284028 363.83571512 380.52693737 393.77711297 404.06663702 412.58945479 420.46288719 426.53457584 429.69279775 429.69279775 426.53457584 420.46288719 412.58945479 404.06663702 393.77711297 380.52693737 363.83571512 346.05284028 328.98973238 300.00000000 300.00000000 300.00000000 300.00000000 300.00000000 300.00000000 300.00000000 300.00000000 300.00000000 300.00000000 300.00000000 300.00000000 300.00000000 300.00000000 300.00000000 300.00000000 300.00000000 300.00000000 326.00802902 345.86991753 370.29765477 391.66405461 411.14164481 428.63813485 443.28400892 455.08523188 464.52870420 472.02873828 477.35713504 480.10815422 480.10815422 477.35713504 472.02873828 464.52870420 455.08523188 443.28400892 428.63813485 411.14164481 391.66405461 370.29765477 345.86991753 326.00802902 300.00000000 300.00000000 300.00000000 300.00000000 300.00000000 300.00000000 300.00000000 300.00000000 300.00000000 300.00000000 300.00000000 300.00000000 300.00000000 300.00000000 300.00000000 332.22878296 361.25597249 387.76673020 413.58742002 436.97433149 457.70074182 475.68870167 490.71937101 502.85746014 512.38668383 519.56455899 524.42780011 526.88855470 526.88855470 524.42780011 519.56455899 512.38668383 502.85746014 490.71937101 475.68870167 457.70074182 436.97433149 413.58742002 387.76673020 361.25597249 332.22878296 300.00000000 300.00000000 300.00000000 300.00000000 300.00000000 300.00000000 300.00000000 300.00000000 300.00000000 300.00000000 300.00000000 300.00000000 314.95360161 337.48883296 368.10677342 399.05852776 428.41656596 455.65627734 479.97330816 501.06838493 518.91836330 533.59531069 545.30652868 554.34559405 560.97738794 565.35497485 567.53556240 567.53556240 565.35497485 560.97738794 554.34559405 545.30652868 533.59531069 518.91836330 501.06838493 479.97330816 455.65627734 428.41656596 399.05852776 368.10677342 337.48883296 314.95360161 300.00000000 300.00000000 300.00000000 300.00000000 300.00000000 300.00000000 300.00000000 300.00000000 300.00000000 300.00000000 335.97919066 368.78305998 402.48700815 435.48696028 466.38166288 494.30687659 518.69757579 539.38127588 556.47143113 570.23373686 581.01813242 589.19321913 595.07687394 598.89314508 600.77228244 600.77228244 598.89314508 595.07687394 589.19321913 581.01813242 570.23373686 556.47143113 539.38127588 518.69757579 494.30687659 466.38166288 435.48696028 402.48700815 368.78305998 335.97919066 300.00000000 300.00000000 300.00000000 300.00000000 300.00000000 300.00000000 300.00000000 300.00000000 300.00000000 327.78285850 362.00781554 397.85916277 433.84108735 468.31271818 499.93978428 527.86795521 551.69373244 571.41619868 587.31722226 599.82706415 609.42294459 616.55539010 621.59727023 624.81927786 626.39041328 626.39041328 624.81927786 621.59727023 616.55539010 609.42294459 599.82706415 587.31722226 571.41619868 551.69373244 527.86795521 499.93978428 468.31271818 433.84108735 397.85916277 362.00781554 327.78285850 300.00000000 300.00000000 300.00000000 300.00000000 300.00000000 300.00000000 300.00000000 319.32485743 349.32216959 385.13381498 423.04423217 460.61594470 495.97266161 527.77136341 555.23958052 578.13265946 596.62707625 611.17111034 622.33677315 630.70604271 636.79705561 641.02454063 643.68732121 644.97376030 644.97376030 643.68732121 641.02454063 636.79705561 630.70604271 622.33677315 611.17111034 596.62707625 578.13265946 555.23958052 527.77136341 495.97266161 460.61594470 423.04423217 385.13381498 349.32216959 319.32485743 300.00000000 300.00000000 300.00000000 300.00000000 300.00000000 300.00000000 330.11615574 364.84199547 403.21735825 442.89509020 481.58159224 517.39827481 549.04609511 575.85795733 597.73840748 615.02225585 628.29964026 638.25483828 645.54788688 650.74447792 654.28562537 656.48440852 657.53703626 657.53703626 656.48440852 654.28562537 650.74447792 645.54788688 638.25483828 628.29964026 615.02225585 597.73840748 575.85795733 549.04609511 517.39827481 481.58159224 442.89509020 403.21735825 364.84199547 330.11615574 300.00000000 300.00000000 300.00000000 300.00000000 300.00000000 300.00000000 336.98066242 375.19017200 415.59348156 456.54139154 495.93186288 531.94515362 563.34390435 589.55520795 610.60072201 626.93369314 639.24637328 648.29999640 654.80521423 659.35636150 662.40820282 664.27936990 665.16794208 665.16794208 664.27936990 662.40820282 659.35636150 654.80521423 648.29999640 639.24637328 626.93369314 610.60072201 589.55520795 563.34390435 531.94515362 495.93186288 456.54139154 415.59348156 375.19017200 336.98066242 300.00000000 300.00000000 300.00000000 300.00000000 300.00000000 310.89262608 342.51909991 380.81208203 421.95633467 463.49493790 503.21067636 539.28386352 570.50983388 596.36901348 616.94717138 632.76072485 644.55508398 653.13035702 659.22178047 663.43676901 666.23556382 667.93823453 668.74273022 668.74273022 667.93823453 666.23556382 663.43676901 659.22178047 653.13035702 644.55508398 632.76072485 616.94717138 596.36901348 570.50983388 539.28386352 503.21067636 463.49493790 421.95633467 380.81208203 342.51909991 310.89262608 300.00000000 300.00000000 300.00000000 300.00000000 310.89262608 342.51909991 380.81208203 421.95633467 463.49493790 503.21067636 539.28386352 570.50983388 596.36901348 616.94717138 632.76072485 644.55508398 653.13035702 659.22178047 663.43676901 666.23556382 667.93823453 668.74273022 668.74273022 667.93823453 666.23556382 663.43676901 659.22178047 653.13035702 644.55508398 632.76072485 616.94717138 596.36901348 570.50983388 539.28386352 503.21067636 463.49493790 421.95633467 380.81208203 342.51909991 310.89262608 300.00000000 300.00000000 300.00000000 300.00000000 300.00000000 336.98066242 375.19017200 415.59348156 456.54139154 495.93186288 531.94515362 563.34390435 589.55520795 610.60072201 626.93369314 639.24637328 648.29999640 654.80521423 659.35636150 662.40820282 664.27936990 665.16794208 665.16794208 664.27936990 662.40820282 659.35636150 654.80521423 648.29999640 639.24637328 626.93369314 610.60072201 589.55520795 563.34390435 531.94515362 495.93186288 456.54139154 415.59348156 375.19017200 336.98066242 300.00000000 300.00000000 300.00000000 300.00000000 300.00000000 300.00000000 330.11615574 364.84199547 403.21735825 442.89509020 481.58159224 517.39827481 549.04609511 575.85795733 597.73840748 615.02225585 628.29964026 638.25483828 645.54788688 650.74447792 654.28562537 656.48440852 657.53703626 657.53703626 656.48440852 654.28562537 650.74447792 645.54788688 638.25483828 628.29964026 615.02225585 597.73840748 575.85795733 549.04609511 517.39827481 481.58159224 442.89509020 403.21735825 364.84199547 330.11615574 300.00000000 300.00000000 300.00000000 300.00000000 300.00000000 300.00000000 319.32485743 349.32216959 385.13381498 423.04423217 460.61594470 495.97266161 527.77136341 555.23958052 578.13265946 596.62707625 611.17111034 622.33677315 630.70604271 636.79705561 641.02454063 643.68732121 644.97376030 644.97376030 643.68732121 641.02454063 636.79705561 630.70604271 622.33677315 611.17111034 596.62707625 578.13265946 555.23958052 527.77136341 495.97266161 460.61594470 423.04423217 385.13381498 349.32216959 319.32485743 300.00000000 300.00000000 300.00000000 300.00000000 300.00000000 300.00000000 300.00000000 327.78285850 362.00781554 397.85916277 433.84108735 468.31271818 499.93978428 527.86795521 551.69373244 571.41619868 587.31722226 599.82706415 609.42294459 616.55539010 621.59727023 624.81927786 626.39041328 626.39041328 624.81927786 621.59727023 616.55539010 609.42294459 599.82706415 587.31722226 571.41619868 551.69373244 527.86795521 499.93978428 468.31271818 433.84108735 397.85916277 362.00781554 327.78285850 300.00000000 300.00000000 300.00000000 300.00000000 300.00000000 300.00000000 300.00000000 300.00000000 300.00000000 335.97919066 368.78305998 402.48700815 435.48696028 466.38166288 494.30687659 518.69757579 539.38127588 556.47143113 570.23373686 581.01813242 589.19321913 595.07687394 598.89314508 600.77228244 600.77228244 598.89314508 595.07687394 589.19321913 581.01813242 570.23373686 556.47143113 539.38127588 518.69757579 494.30687659 466.38166288 435.48696028 402.48700815 368.78305998 335.97919066 300.00000000 300.00000000 300.00000000 300.00000000 300.00000000 300.00000000 300.00000000 300.00000000 300.00000000 300.00000000 314.95360161 337.48883296 368.10677342 399.05852776 428.41656596 455.65627734 479.97330816 501.06838493 518.91836330 533.59531069 545.30652868 554.34559405 560.97738794 565.35497485 567.53556240 567.53556240 565.35497485 560.97738794 554.34559405 545.30652868 533.59531069 518.91836330 501.06838493 479.97330816 455.65627734 428.41656596 399.05852776 368.10677342 337.48883296 314.95360161 300.00000000 300.00000000 300.00000000 300.00000000 300.00000000 300.00000000 300.00000000 300.00000000 300.00000000 300.00000000 300.00000000 300.00000000 332.22878296 361.25597249 387.76673020 413.58742002 436.97433149 457.70074182 475.68870167 490.71937101 502.85746014 512.38668383 519.56455899 524.42780011 526.88855470 526.88855470 524.42780011 519.56455899 512.38668383 502.85746014 490.71937101 475.68870167 457.70074182 436.97433149 413.58742002 387.76673020 361.25597249 332.22878296 300.00000000 300.00000000 300.00000000 300.00000000 300.00000000 300.00000000 300.00000000 300.00000000 300.00000000 300.00000000 300.00000000 300.00000000 300.00000000 300.00000000 300.00000000 326.00802902 345.86991753 370.29765477 391.66405461 411.14164481 428.63813485 443.28400892 455.08523188 464.52870420 472.02873828 477.35713504 480.10815422 480.10815422 477.35713504 472.02873828 464.52870420 455.08523188 443.28400892 428.63813485 411.14164481 391.66405461 370.29765477 345.86991753 326.00802902 300.00000000 300.00000000 300.00000000 300.00000000 300.00000000 300.00000000 300.00000000 300.00000000 300.00000000 300.00000000 300.00000000 300.00000000 300.00000000 300.00000000 300.00000000 300.00000000 300.00000000 300.00000000 328.98973238 346.05284028 363.83571512 380.52693737 393.77711297 404.06663702 412.58945479 420.46288719 426.53457584 429.69279775 429.69279775 426.53457584 420.46288719 412.58945479 404.06663702 393.77711297 380.52693737 363.83571512 346.05284028 328.98973238 300.00000000 300.00000000 300.00000000 300.00000000 300.00000000 300.00000000 300.00000000 300.00000000 300.00000000 300.00000000 300.00000000 300.00000000 300.00000000 300.00000000 300.00000000 300.00000000 300.00000000 300.00000000 300.00000000 300.00000000 300.00000000 300.00000000 320.13359886 335.53710219 345.22048008 351.96708402 358.15206475 367.87250206 375.69039473 379.46337745 379.46337745 375.69039473 367.87250206 358.15206475 351.96708402 345.22048008 335.53710219 320.13359886 300.00000000 300.00000000 300.00000000 300.00000000 300.00000000 300.00000000 300.00000000 300.00000000 300.00000000 300.00000000 300.00000000 300.00000000 300.00000000 300.00000000 300.00000000 300.00000000 300.00000000 300.00000000 300.00000000 300.00000000 300.00000000 300.00000000 300.00000000 300.00000000 300.00000000 300.00000000 300.00000000 300.00000000 300.00000000 319.94511727 330.67776525 334.60885141 334.60885141 330.67776525 319.94511727 300.00000000 300.00000000 300.00000000 300.00000000 300.00000000 300.00000000 300.00000000 300.00000000 300.00000000 300.00000000 300.00000000 300.00000000 300.00000000 300.00000000 300.00000000 300.00000000 300.00000000 300.00000000 300.00000000 300.00000000 300.00000000 300.00000000 300.00000000 300.00000000 300.00000000 300.00000000 300.00000000 300.00000000 300.00000000 300.00000000 300.00000000 300.00000000 300.00000000 300.00000000 300.00000000 300.00000000 300.00000000 300.00000000 300.00000000 300.00000000 300.00000000 300.00000000 300.00000000 300.00000000 300.00000000 300.00000000 300.00000000 300.00000000 300.00000000 300.00000000 300.00000000 300.00000000 300.00000000 300.00000000 300.00000000 300.00000000 300.00000000 300.00000000 300.00000000 300.00000000 300.00000000 300.00000000 300.00000000 300.00000000 300.00000000 300.00000000 300.00000000 300.00000000 300.00000000 300.00000000 300.00000000 300.00000000 300.00000000 300.00000000 300.00000000 300.00000000 300.00000000 300.00000000 300.00000000 300.00000000 300.00000000 300.00000000 300.00000000 300.00000000 300.00000000 300.00000000 300.00000000 300.00000000 300.00000000 300.00000000 300.00000000 300.00000000 300.00000000 300.00000000 300.00000000 300.00000000 300.00000000 300.00000000 300.00000000 300.00000000 300.00000000 300.00000000 300.00000000 300.00000000 300.00000000 300.00000000 300.00000000 300.00000000 300.00000000 300.00000000 300.00000000 300.00000000 300.00000000 300.00000000 300.00000000 300.00000000 300.00000000 300.00000000 300.00000000 300.00000000 300.00000000 300.00000000 300.00000000 300.00000000 300.00000000 300.00000000 300.00000000 300.00000000 300.00000000 300.00000000 300.00000000 300.00000000 300.00000000 300.00000000 300.00000000 300.00000000 300.00000000 300.00000000 300.00000000 300.00000000 300.00000000 300.00000000 300.00000000 300.00000000 300.00000000 300.00000000 300.00000000 300.00000000 300.00000000 300.00000000 300.00000000 300.00000000 300.00000000 300.00000000 300.00000000 300.00000000 300.00000000 300.00000000 300.00000000 300.00000000 300.00000000 300.00000000 300.00000000 300.00000000 300.00000000 300.00000000 300.00000000 300.00000000 300.00000000 300.00000000 300.00000000 300.00000000 300.00000000 300.00000000 300.00000000 300.00000000 300.00000000 300.00000000 300.00000000 300.00000000 300.00000000 300.00000000 300.00000000 300.00000000 300.00000000 300.00000000 300.00000000 300.00000000 300.00000000 300.00000000 300.00000000 300.00000000 300.00000000 300.00000000 300.00000000 300.00000000 300.00000000 300.00000000 300.00000000 300.00000000 300.00000000 300.00000000 300.00000000 300.00000000 300.00000000 300.00000000 300.00000000 300.00000000 300.00000000 300.00000000 300.00000000 300.00000000 300.00000000 300.00000000 300.00000000 300.00000000 300.00000000 300.00000000 300.00000000 300.00000000 300.00000000 300.00000000 300.00000000 300.00000000 300.00000000 300.00000000 300.00000000 300.00000000 300.00000000 300.00000000 300.00000000 300.00000000 300.00000000 300.00000000 300.00000000 300.00000000 300.00000000 300.00000000 300.00000000 300.00000000 300.00000000 300.00000000 300.00000000 300.00000000 300.00000000 300.00000000 300.00000000 300.00000000 300.00000000 300.00000000 300.00000000 300.00000000 300.00000000 300.00000000 300.00000000 300.00000000 300.00000000 300.00000000 300.00000000 300.00000000 300.00000000 300.00000000 300.00000000 300.00000000 300.00000000 300.00000000 300.00000000 300.00000000 300.00000000 300.00000000 300.00000000 300.00000000 300.00000000 300.00000000 300.00000000 300.00000000 300.00000000 300.00000000 300.00000000 300.00000000 300.00000000 300.00000000 300.00000000 300.00000000 300.00000000 300.00000000 300.00000000 300.00000000 300.00000000 300.00000000 300.00000000 300.00000000 300.00000000 300.00000000 300.00000000 300.00000000 300.00000000 300.00000000 300.00000000 300.00000000 300.00000000 300.00000000 300.00000000 300.00000000 300.00000000 300.00000000 300.00000000 300.00000000 300.00000000 300.00000000 300.00000000 300.00000000 300.00000000 300.00000000 300.00000000 300.00000000 300.00000000 300.00000000 300.00000000 300.00000000 300.00000000 300.00000000 300.00000000 300.00000000 300.00000000 300.00000000 300.00000000 300.00000000 300.00000000 300.00000000 300.00000000 300.00000000 300.00000000 300.00000000 300.00000000 300.00000000 300.00000000 