# vtk DataFile Version 3.0
VTK - Matlab export
ASCII
DATASET STRUCTURED_POINTS
DIMENSIONS 40 40 1
SPACING 1 1 1
ORIGIN 0 0 0
POINT_DATA 1600
SCALARS Proofstrength float 1
LOOKUP_TABLE default
142.25514280 142.25514280 142.25514280 142.25514280 142.25514280 142.25514280 142.25514280 142.25514280 142.25514280 142.25514280 142.25514280 142.25514280 142.25514280 142.25514280 142.25514280 142.25514280 142.25514280 142.25514280 142.25514280 142.25514280 142.25514280 142.25514280 142.25514280 142.25514280 142.25514280 142.25514280 142.25514280 142.25514280 142.25514280 142.25514280 142.25514280 142.25514280 142.25514280 142.25514280 142.25514280 142.25514280 142.25514280 142.25514280 142.25514280 142.25514280 142.25514280 142.25514280 142.25514280 142.25514280 142.25514280 142.25514280 142.25514280 142.25514280 142.25514280 142.25514280 142.25514280 142.25514280 142.25514280 142.25514280 142.25514280 142.25514280 142.25514280 142.25514280 142.25514280 142.25514280 142.25514280 142.25514280 142.25514280 142.25514280 142.25514280 142.25514280 142.25514280 142.25514280 142.25514280 142.25514280 142.25514280 142.25514280 142.25514280 142.25514280 142.25514280 142.25514280 142.25514280 142.25514280 142.25514280 142.25514280 142.25514280 142.25514280 142.25514280 142.25514280 142.25514280 142.25514280 142.25514280 142.25514280 142.25514280 142.25514280 142.25514280 142.25514280 142.25514280 142.25514280 142.25514280 142.25514280 142.25514280 142.25514280 142.25514280 142.25514280 142.25514280 142.25514280 142.25514280 142.25514280 142.25514280 142.25514280 142.25514280 142.25514280 142.25514280 142.25514280 142.25514280 142.25514280 142.25514280 142.25514280 142.25514280 142.25514280 142.25514280 142.25514280 142.25514280 142.25514280 142.25514280 142.25514280 142.25514280 142.25514280 142.25514280 142.25514280 142.25514280 142.25514280 142.25514280 142.25514280 142.25514280 142.25514280 142.25514280 142.25514280 142.25514280 142.25514280 142.25514280 142.25514280 142.25514280 142.25514280 142.25514280 142.25514280 142.25514280 142.25514280 142.25514280 142.25514280 142.25514280 142.25514280 142.25514280 142.25514280 142.25514280 142.25514280 142.25514280 142.25514280 142.25514280 142.25514280 142.25514280 142.25514280 142.25514280 142.25514280 142.25514280 142.25514280 142.25514280 142.25514280 142.25514280 142.25514280 142.25514280 142.25514280 142.25514280 142.25514280 142.25514280 142.25514280 142.25514280 142.25514280 142.25514280 142.25514280 142.25514280 142.25514280 142.25514280 142.25514280 142.25514280 142.25514280 142.25514280 142.25514280 142.25514280 142.25514280 142.25514280 142.25514280 142.25514280 142.25514280 142.25514280 142.25514280 142.25514280 142.25514280 142.25514280 142.25514280 142.25514280 142.25514280 142.25514280 142.25514280 142.25514280 142.25514280 142.25514280 142.25514280 142.25514280 142.25514280 142.25514280 142.25514280 142.25514280 142.25514280 142.25514280 142.25514280 142.25514280 142.25514280 142.25514280 142.25514280 142.25514280 142.25514280 142.25514280 142.25514280 142.25514280 142.25514280 142.25514280 142.25514280 142.25514280 142.25514280 142.25514280 142.25514280 142.25514280 142.25514280 142.25514280 142.25514280 142.25514280 142.25514280 142.25514280 142.25514280 142.25514280 142.25514280 142.25514280 142.25514280 142.25514280 142.25514280 142.25514280 142.25514280 142.25514280 142.25514280 142.25514280 142.25514280 142.25514280 142.25514280 142.25514280 142.25514280 142.25514280 142.25514280 142.25514280 142.25514280 142.25514280 142.25514280 142.25514280 142.25514280 142.25514280 142.25514280 142.25514280 142.25514280 142.25514280 142.25514280 142.25514280 142.25514280 142.25514280 142.25514280 142.25514280 142.25514280 142.25514280 142.25514280 142.25514280 142.25514280 142.25514280 142.25514280 142.25514280 142.25514280 142.25514280 142.25514280 142.25514280 142.25514280 142.25514280 142.25514280 142.25514280 142.25514280 142.25514280 142.25514280 142.25514280 142.25514280 142.25514280 142.25514280 142.25514280 142.25514280 142.25514280 142.25514280 142.25514280 142.25514280 142.25514280 142.25514280 142.25514280 142.25514280 142.25514280 142.25514280 142.25514280 142.25514280 142.25514280 142.25514280 142.25514280 142.25514280 142.25514280 142.25514280 142.25514280 142.25514280 142.25514280 142.25514280 142.25514280 142.25514280 142.25514280 142.25514280 142.25514280 142.25514280 142.25514280 142.25514280 142.25514280 142.25514280 142.25514280 142.25514280 142.25514280 142.25514280 142.25514280 142.25514280 142.25514280 142.25514280 142.25514280 142.25686775 142.25780326 142.25814701 142.25814701 142.25780326 142.25686775 142.25514280 142.25514280 142.25514280 142.25514280 142.25514280 142.25514280 142.25514280 142.25514280 142.25514280 142.25514280 142.25514280 142.25514280 142.25514280 142.25514280 142.25514280 142.25514280 142.25514280 142.25514280 142.25514280 142.25514280 142.25514280 142.25514280 142.25514280 142.25514280 142.25514280 142.25514280 142.25514280 142.25514280 142.25514280 142.25696512 142.25832336 142.25913447 142.25966384 142.26014135 142.26094298 142.26159747 142.26191335 142.26191335 142.26159747 142.26094298 142.26014135 142.25966384 142.25913447 142.25832336 142.25696512 142.25514280 142.25514280 142.25514280 142.25514280 142.25514280 142.25514280 142.25514280 142.25514280 142.25514280 142.25514280 142.25514280 142.25514280 142.25514280 142.25514280 142.25514280 142.25514280 142.25514280 142.25514280 142.25514280 142.25514280 142.25514280 142.25514280 142.25785597 142.25937618 142.26089530 142.26226171 142.26327660 142.26400711 142.26458839 142.26514389 142.26558421 142.26581459 142.26581459 142.26558421 142.26514389 142.26458839 142.26400711 142.26327660 142.26226171 142.26089530 142.25937618 142.25785597 142.25514280 142.25514280 142.25514280 142.25514280 142.25514280 142.25514280 142.25514280 142.25514280 142.25514280 142.25514280 142.25514280 142.25514280 142.25514280 142.25514280 142.25514280 142.25514280 142.25514280 142.25514280 142.25768387 142.25952803 142.26170263 142.26347429 142.26497071 142.26621486 142.26716124 142.26784790 142.26835613 142.26875388 142.26904046 142.26918948 142.26918948 142.26904046 142.26875388 142.26835613 142.26784790 142.26716124 142.26621486 142.26497071 142.26347429 142.26170263 142.25952803 142.25768387 142.25514280 142.25514280 142.25514280 142.25514280 142.25514280 142.25514280 142.25514280 142.25514280 142.25514280 142.25514280 142.25514280 142.25514280 142.25514280 142.25514280 142.25514280 142.25837268 142.26114098 142.26348871 142.26559350 142.26730561 142.26864240 142.26964928 142.27036170 142.27083900 142.27115400 142.27136656 142.27150432 142.27157290 142.27157290 142.27150432 142.27136656 142.27115400 142.27083900 142.27036170 142.26964928 142.26864240 142.26730561 142.26559350 142.26348871 142.26114098 142.25837268 142.25514280 142.25514280 142.25514280 142.25514280 142.25514280 142.25514280 142.25514280 142.25514280 142.25514280 142.25514280 142.25514280 142.25514280 142.25672635 142.25902781 142.26200735 142.26480318 142.26719116 142.26913035 142.27058596 142.27159624 142.27223740 142.27259360 142.27275229 142.27279528 142.27278646 142.27276525 142.27275089 142.27275089 142.27276525 142.27278646 142.27279528 142.27275229 142.27259360 142.27223740 142.27159624 142.27058596 142.26913035 142.26719116 142.26480318 142.26200735 142.25902781 142.25672635 142.25514280 142.25514280 142.25514280 142.25514280 142.25514280 142.25514280 142.25514280 142.25514280 142.25514280 142.25514280 142.25898410 142.26230705 142.26546013 142.26822354 142.27044238 142.27206583 142.27311351 142.27366811 142.27384655 142.27377145 142.27355523 142.27329074 142.27304597 142.27286406 142.27276824 142.27276824 142.27286406 142.27304597 142.27329074 142.27355523 142.27377145 142.27384655 142.27366811 142.27311351 142.27206583 142.27044238 142.26822354 142.26546013 142.26230705 142.25898410 142.25514280 142.25514280 142.25514280 142.25514280 142.25514280 142.25514280 142.25514280 142.25514280 142.25514280 142.25820491 142.26182326 142.26535641 142.26854453 142.27116303 142.27308146 142.27427947 142.27482792 142.27486015 142.27453606 142.27401078 142.27341568 142.27285045 142.27238293 142.27205408 142.27188529 142.27188529 142.27205408 142.27238293 142.27285045 142.27341568 142.27401078 142.27453606 142.27486015 142.27482792 142.27427947 142.27308146 142.27116303 142.26854453 142.26535641 142.26182326 142.25820491 142.25514280 142.25514280 142.25514280 142.25514280 142.25514280 142.25514280 142.25514280 142.25733081 142.26062957 142.26436004 142.26797415 142.27110118 142.27349665 142.27504997 142.27578095 142.27581201 142.27532616 142.27452271 142.27358258 142.27264921 142.27182358 142.27116885 142.27071962 142.27049206 142.27049206 142.27071962 142.27116885 142.27182358 142.27264921 142.27358258 142.27452271 142.27532616 142.27581201 142.27578095 142.27504997 142.27349665 142.27110118 142.26797415 142.26436004 142.26062957 142.25733081 142.25514280 142.25514280 142.25514280 142.25514280 142.25514280 142.25514280 142.25857080 142.26239094 142.26633963 142.27000708 142.27303566 142.27518999 142.27638570 142.27668342 142.27625251 142.27531882 142.27411348 142.27283575 142.27163506 142.27060955 142.26981506 142.26927808 142.26900838 142.26900838 142.26927808 142.26981506 142.27060955 142.27163506 142.27283575 142.27411348 142.27531882 142.27625251 142.27668342 142.27638570 142.27518999 142.27303566 142.27000708 142.26633963 142.26239094 142.25857080 142.25514280 142.25514280 142.25514280 142.25514280 142.25514280 142.25514280 142.25936630 142.26356848 142.26768760 142.27138296 142.27431763 142.27627162 142.27718493 142.27715136 142.27637609 142.27511628 142.27362498 142.27211270 142.27073083 142.26957327 142.26868871 142.26809640 142.26780053 142.26780053 142.26809640 142.26868871 142.26957327 142.27073083 142.27211270 142.27362498 142.27511628 142.27637609 142.27715136 142.27718493 142.27627162 142.27431763 142.27138296 142.26768760 142.26356848 142.25936630 142.25514280 142.25514280 142.25514280 142.25514280 142.25514280 142.25640211 142.26001257 142.26421052 142.26837841 142.27207625 142.27495303 142.27679371 142.27755174 142.27733926 142.27638081 142.27494997 142.27331092 142.27167934 142.27020686 142.26898444 142.26805645 142.26743789 142.26712974 142.26712974 142.26743789 142.26805645 142.26898444 142.27020686 142.27167934 142.27331092 142.27494997 142.27638081 142.27733926 142.27755174 142.27679371 142.27495303 142.27207625 142.26837841 142.26421052 142.26001257 142.25640211 142.25514280 142.25514280 142.25514280 142.25514280 142.25640211 142.26001257 142.26421052 142.26837841 142.27207625 142.27495303 142.27679371 142.27755174 142.27733926 142.27638081 142.27494997 142.27331092 142.27167934 142.27020686 142.26898444 142.26805645 142.26743789 142.26712974 142.26712974 142.26743789 142.26805645 142.26898444 142.27020686 142.27167934 142.27331092 142.27494997 142.27638081 142.27733926 142.27755174 142.27679371 142.27495303 142.27207625 142.26837841 142.26421052 142.26001257 142.25640211 142.25514280 142.25514280 142.25514280 142.25514280 142.25514280 142.25936630 142.26356848 142.26768760 142.27138296 142.27431763 142.27627162 142.27718493 142.27715136 142.27637609 142.27511628 142.27362498 142.27211270 142.27073083 142.26957327 142.26868871 142.26809640 142.26780053 142.26780053 142.26809640 142.26868871 142.26957327 142.27073083 142.27211270 142.27362498 142.27511628 142.27637609 142.27715136 142.27718493 142.27627162 142.27431763 142.27138296 142.26768760 142.26356848 142.25936630 142.25514280 142.25514280 142.25514280 142.25514280 142.25514280 142.25514280 142.25857080 142.26239094 142.26633963 142.27000708 142.27303566 142.27518999 142.27638570 142.27668342 142.27625251 142.27531882 142.27411348 142.27283575 142.27163506 142.27060955 142.26981506 142.26927808 142.26900838 142.26900838 142.26927808 142.26981506 142.27060955 142.27163506 142.27283575 142.27411348 142.27531882 142.27625251 142.27668342 142.27638570 142.27518999 142.27303566 142.27000708 142.26633963 142.26239094 142.25857080 142.25514280 142.25514280 142.25514280 142.25514280 142.25514280 142.25514280 142.25733081 142.26062957 142.26436004 142.26797415 142.27110118 142.27349665 142.27504997 142.27578095 142.27581201 142.27532616 142.27452271 142.27358258 142.27264921 142.27182358 142.27116885 142.27071962 142.27049206 142.27049206 142.27071962 142.27116885 142.27182358 142.27264921 142.27358258 142.27452271 142.27532616 142.27581201 142.27578095 142.27504997 142.27349665 142.27110118 142.26797415 142.26436004 142.26062957 142.25733081 142.25514280 142.25514280 142.25514280 142.25514280 142.25514280 142.25514280 142.25514280 142.25820491 142.26182326 142.26535641 142.26854453 142.27116303 142.27308146 142.27427947 142.27482792 142.27486015 142.27453606 142.27401078 142.27341568 142.27285045 142.27238293 142.27205408 142.27188529 142.27188529 142.27205408 142.27238293 142.27285045 142.27341568 142.27401078 142.27453606 142.27486015 142.27482792 142.27427947 142.27308146 142.27116303 142.26854453 142.26535641 142.26182326 142.25820491 142.25514280 142.25514280 142.25514280 142.25514280 142.25514280 142.25514280 142.25514280 142.25514280 142.25514280 142.25898410 142.26230705 142.26546013 142.26822354 142.27044238 142.27206583 142.27311351 142.27366811 142.27384655 142.27377145 142.27355523 142.27329074 142.27304597 142.27286406 142.27276824 142.27276824 142.27286406 142.27304597 142.27329074 142.27355523 142.27377145 142.27384655 142.27366811 142.27311351 142.27206583 142.27044238 142.26822354 142.26546013 142.26230705 142.25898410 142.25514280 142.25514280 142.25514280 142.25514280 142.25514280 142.25514280 142.25514280 142.25514280 142.25514280 142.25514280 142.25672635 142.25902781 142.26200735 142.26480318 142.26719116 142.26913035 142.27058596 142.27159624 142.27223740 142.27259360 142.27275229 142.27279528 142.27278646 142.27276525 142.27275089 142.27275089 142.27276525 142.27278646 142.27279528 142.27275229 142.27259360 142.27223740 142.27159624 142.27058596 142.26913035 142.26719116 142.26480318 142.26200735 142.25902781 142.25672635 142.25514280 142.25514280 142.25514280 142.25514280 142.25514280 142.25514280 142.25514280 142.25514280 142.25514280 142.25514280 142.25514280 142.25514280 142.25837268 142.26114098 142.26348871 142.26559350 142.26730561 142.26864240 142.26964928 142.27036170 142.27083900 142.27115400 142.27136656 142.27150432 142.27157290 142.27157290 142.27150432 142.27136656 142.27115400 142.27083900 142.27036170 142.26964928 142.26864240 142.26730561 142.26559350 142.26348871 142.26114098 142.25837268 142.25514280 142.25514280 142.25514280 142.25514280 142.25514280 142.25514280 142.25514280 142.25514280 142.25514280 142.25514280 142.25514280 142.25514280 142.25514280 142.25514280 142.25514280 142.25768387 142.25952803 142.26170263 142.26347429 142.26497071 142.26621486 142.26716124 142.26784790 142.26835613 142.26875388 142.26904046 142.26918948 142.26918948 142.26904046 142.26875388 142.26835613 142.26784790 142.26716124 142.26621486 142.26497071 142.26347429 142.26170263 142.25952803 142.25768387 142.25514280 142.25514280 142.25514280 142.25514280 142.25514280 142.25514280 142.25514280 142.25514280 142.25514280 142.25514280 142.25514280 142.25514280 142.25514280 142.25514280 142.25514280 142.25514280 142.25514280 142.25514280 142.25785597 142.25937618 142.26089530 142.26226171 142.26327660 142.26400711 142.26458839 142.26514389 142.26558421 142.26581459 142.26581459 142.26558421 142.26514389 142.26458839 142.26400711 142.26327660 142.26226171 142.26089530 142.25937618 142.25785597 142.25514280 142.25514280 142.25514280 142.25514280 142.25514280 142.25514280 142.25514280 142.25514280 142.25514280 142.25514280 142.25514280 142.25514280 142.25514280 142.25514280 142.25514280 142.25514280 142.25514280 142.25514280 142.25514280 142.25514280 142.25514280 142.25514280 142.25696512 142.25832336 142.25913447 142.25966384 142.26014135 142.26094298 142.26159747 142.26191335 142.26191335 142.26159747 142.26094298 142.26014135 142.25966384 142.25913447 142.25832336 142.25696512 142.25514280 142.25514280 142.25514280 142.25514280 142.25514280 142.25514280 142.25514280 142.25514280 142.25514280 142.25514280 142.25514280 142.25514280 142.25514280 142.25514280 142.25514280 142.25514280 142.25514280 142.25514280 142.25514280 142.25514280 142.25514280 142.25514280 142.25514280 142.25514280 142.25514280 142.25514280 142.25514280 142.25514280 142.25514280 142.25686775 142.25780326 142.25814701 142.25814701 142.25780326 142.25686775 142.25514280 142.25514280 142.25514280 142.25514280 142.25514280 142.25514280 142.25514280 142.25514280 142.25514280 142.25514280 142.25514280 142.25514280 142.25514280 142.25514280 142.25514280 142.25514280 142.25514280 142.25514280 142.25514280 142.25514280 142.25514280 142.25514280 142.25514280 142.25514280 142.25514280 142.25514280 142.25514280 142.25514280 142.25514280 142.25514280 142.25514280 142.25514280 142.25514280 142.25514280 142.25514280 142.25514280 142.25514280 142.25514280 142.25514280 142.25514280 142.25514280 142.25514280 142.25514280 142.25514280 142.25514280 142.25514280 142.25514280 142.25514280 142.25514280 142.25514280 142.25514280 142.25514280 142.25514280 142.25514280 142.25514280 142.25514280 142.25514280 142.25514280 142.25514280 142.25514280 142.25514280 142.25514280 142.25514280 142.25514280 142.25514280 142.25514280 142.25514280 142.25514280 142.25514280 142.25514280 142.25514280 142.25514280 142.25514280 142.25514280 142.25514280 142.25514280 142.25514280 142.25514280 142.25514280 142.25514280 142.25514280 142.25514280 142.25514280 142.25514280 142.25514280 142.25514280 142.25514280 142.25514280 142.25514280 142.25514280 142.25514280 142.25514280 142.25514280 142.25514280 142.25514280 142.25514280 142.25514280 142.25514280 142.25514280 142.25514280 142.25514280 142.25514280 142.25514280 142.25514280 142.25514280 142.25514280 142.25514280 142.25514280 142.25514280 142.25514280 142.25514280 142.25514280 142.25514280 142.25514280 142.25514280 142.25514280 142.25514280 142.25514280 142.25514280 142.25514280 142.25514280 142.25514280 142.25514280 142.25514280 142.25514280 142.25514280 142.25514280 142.25514280 142.25514280 142.25514280 142.25514280 142.25514280 142.25514280 142.25514280 142.25514280 142.25514280 142.25514280 142.25514280 142.25514280 142.25514280 142.25514280 142.25514280 142.25514280 142.25514280 142.25514280 142.25514280 142.25514280 142.25514280 142.25514280 142.25514280 142.25514280 142.25514280 142.25514280 142.25514280 142.25514280 142.25514280 142.25514280 142.25514280 142.25514280 142.25514280 142.25514280 142.25514280 142.25514280 142.25514280 142.25514280 142.25514280 142.25514280 142.25514280 142.25514280 142.25514280 142.25514280 142.25514280 142.25514280 142.25514280 142.25514280 142.25514280 142.25514280 142.25514280 142.25514280 142.25514280 142.25514280 142.25514280 142.25514280 142.25514280 142.25514280 142.25514280 142.25514280 142.25514280 142.25514280 142.25514280 142.25514280 142.25514280 142.25514280 142.25514280 142.25514280 142.25514280 142.25514280 142.25514280 142.25514280 142.25514280 142.25514280 142.25514280 142.25514280 142.25514280 142.25514280 142.25514280 142.25514280 142.25514280 142.25514280 142.25514280 142.25514280 142.25514280 142.25514280 142.25514280 142.25514280 142.25514280 142.25514280 142.25514280 142.25514280 142.25514280 142.25514280 142.25514280 142.25514280 142.25514280 142.25514280 142.25514280 142.25514280 142.25514280 142.25514280 142.25514280 142.25514280 142.25514280 142.25514280 142.25514280 142.25514280 142.25514280 142.25514280 142.25514280 142.25514280 142.25514280 142.25514280 142.25514280 142.25514280 142.25514280 142.25514280 142.25514280 142.25514280 142.25514280 142.25514280 142.25514280 142.25514280 142.25514280 142.25514280 142.25514280 142.25514280 142.25514280 142.25514280 142.25514280 142.25514280 142.25514280 142.25514280 142.25514280 142.25514280 142.25514280 142.25514280 142.25514280 142.25514280 142.25514280 142.25514280 142.25514280 142.25514280 142.25514280 142.25514280 142.25514280 142.25514280 142.25514280 142.25514280 142.25514280 142.25514280 142.25514280 142.25514280 142.25514280 142.25514280 142.25514280 142.25514280 142.25514280 142.25514280 142.25514280 142.25514280 142.25514280 142.25514280 142.25514280 142.25514280 142.25514280 142.25514280 142.25514280 142.25514280 142.25514280 142.25514280 142.25514280 142.25514280 142.25514280 142.25514280 142.25514280 142.25514280 142.25514280 142.25514280 142.25514280 142.25514280 142.25514280 142.25514280 142.25514280 142.25514280 142.25514280 142.25514280 142.25514280 142.25514280 142.25514280 142.25514280 142.25514280 142.25514280 142.25514280 142.25514280 142.25514280 142.25514280 142.25514280 142.25514280 142.25514280 142.25514280 142.25514280 142.25514280 142.25514280 142.25514280 142.25514280 142.25514280 142.25514280 142.25514280 