# vtk DataFile Version 3.0
VTK - Matlab export
ASCII
DATASET STRUCTURED_POINTS
DIMENSIONS 40 40 1
SPACING 1 1 1
ORIGIN 0 0 0
POINT_DATA 1600
SCALARS Proofstrength float 1
LOOKUP_TABLE default
142.25514280 142.25514280 142.25514280 142.25514280 142.25514280 142.25514280 142.25514280 142.25514280 142.25514280 142.25514280 142.25514280 142.25514280 142.25514280 142.25514280 142.25514280 142.25514280 142.25514280 142.25514280 142.25514280 142.25514280 142.25514280 142.25514280 142.25514280 142.25514280 142.25514280 142.25514280 142.25514280 142.25514280 142.25514280 142.25514280 142.25514280 142.25514280 142.25514280 142.25514280 142.25514280 142.25514280 142.25514280 142.25514280 142.25514280 142.25514280 142.25514280 142.25514280 142.25514280 142.25514280 142.25514280 142.25514280 142.25514280 142.25514280 142.25514280 142.25514280 142.25514280 142.25514280 142.25514280 142.25514280 142.25514280 142.25514280 142.25514280 142.25514280 142.25514280 142.25514280 142.25514280 142.25514280 142.25514280 142.25514280 142.25514280 142.25514280 142.25514280 142.25514280 142.25514280 142.25514280 142.25514280 142.25514280 142.25514280 142.25514280 142.25514280 142.25514280 142.25514280 142.25514280 142.25514280 142.25514280 142.25514280 142.25514280 142.25514280 142.25514280 142.25514280 142.25514280 142.25514280 142.25514280 142.25514280 142.25514280 142.25514280 142.25514280 142.25514280 142.25514280 142.25514280 142.25514280 142.25514280 142.25514280 142.25514280 142.25514280 142.25514280 142.25514280 142.25514280 142.25514280 142.25514280 142.25514280 142.25514280 142.25514280 142.25514280 142.25514280 142.25514280 142.25514280 142.25514280 142.25514280 142.25514280 142.25514280 142.25514280 142.25514280 142.25514280 142.25514280 142.25514280 142.25514280 142.25514280 142.25514280 142.25514280 142.25514280 142.25514280 142.25514280 142.25514280 142.25514280 142.25514280 142.25514280 142.25514280 142.25514280 142.25514280 142.25514280 142.25514280 142.25514280 142.25514280 142.25514280 142.25514280 142.25514280 142.25514280 142.25514280 142.25514280 142.25514280 142.25514280 142.25514280 142.25514280 142.25514280 142.25514280 142.25514280 142.25514280 142.25514280 142.25514280 142.25514280 142.25514280 142.25514280 142.25514280 142.25514280 142.25514280 142.25514280 142.25514280 142.25514280 142.25514280 142.25514280 142.25514280 142.25514280 142.25514280 142.25514280 142.25514280 142.25514280 142.25514280 142.25514280 142.25514280 142.25514280 142.25514280 142.25514280 142.25514280 142.25514280 142.25514280 142.25514280 142.25514280 142.25514280 142.25514280 142.25514280 142.25514280 142.25514280 142.25514280 142.25514280 142.25514280 142.25514280 142.25514280 142.25514280 142.25514280 142.25514280 142.25514280 142.25514280 142.25514280 142.25514280 142.25514280 142.25514280 142.25514280 142.25514280 142.25514280 142.25514280 142.25514280 142.25514280 142.25514280 142.25514280 142.25514280 142.25514280 142.25514280 142.25514280 142.25514280 142.25514280 142.25514280 142.25514280 142.25514280 142.25514280 142.25514280 142.25514280 142.25514280 142.25514280 142.25514280 142.25514280 142.25514280 142.25514280 142.25514280 142.25514280 142.25514280 142.25514280 142.25514280 142.25514280 142.25514280 142.25514280 142.25514280 142.25514280 142.25514280 142.25514280 142.25514280 142.25514280 142.25514280 142.25514280 142.25514280 142.25514280 142.25514280 142.25514280 142.25514280 142.25514280 142.25514280 142.25514280 142.25514280 142.25514280 142.25514280 142.25514280 142.25514280 142.25514280 142.25514280 142.25514280 142.25514280 142.25514280 142.25514280 142.25514280 142.25514280 142.25514280 142.25514280 142.25514280 142.25514280 142.25514280 142.25514280 142.25514280 142.25514280 142.25514280 142.25514280 142.25514280 142.25514280 142.25514280 142.25514280 142.25514280 142.25514280 142.25514280 142.25514280 142.25514280 142.25514280 142.25514280 142.25514280 142.25514280 142.25514280 142.25514280 142.25514280 142.25514280 142.25514280 142.25514280 142.25514280 142.25514280 142.25514280 142.25514280 142.25514280 142.25514280 142.25514280 142.25514280 142.25514280 142.25514280 142.25514280 142.25514280 142.25514280 142.25514280 142.25514280 142.25514280 142.25514280 142.25514280 142.25514280 142.25514280 142.25514280 142.25514280 142.25514280 142.25514280 142.25514280 142.25514280 142.25514280 142.25514280 142.25514280 142.25514280 142.25514280 142.25514280 142.25514280 142.25514280 142.25514280 142.25514280 142.25514280 142.25514280 142.25514280 142.25514280 142.25514280 142.25514280 142.25514280 142.25623710 142.25682377 142.25703763 142.25703763 142.25682377 142.25623710 142.25514280 142.25514280 142.25514280 142.25514280 142.25514280 142.25514280 142.25514280 142.25514280 142.25514280 142.25514280 142.25514280 142.25514280 142.25514280 142.25514280 142.25514280 142.25514280 142.25514280 142.25514280 142.25514280 142.25514280 142.25514280 142.25514280 142.25514280 142.25514280 142.25514280 142.25514280 142.25514280 142.25514280 142.25514280 142.25629583 142.25715873 142.25768291 142.25803339 142.25834967 142.25886358 142.25927799 142.25947702 142.25947702 142.25927799 142.25886358 142.25834967 142.25803339 142.25768291 142.25715873 142.25629583 142.25514280 142.25514280 142.25514280 142.25514280 142.25514280 142.25514280 142.25514280 142.25514280 142.25514280 142.25514280 142.25514280 142.25514280 142.25514280 142.25514280 142.25514280 142.25514280 142.25514280 142.25514280 142.25514280 142.25514280 142.25514280 142.25514280 142.25685108 142.25782566 142.25881313 142.25971437 142.26040237 142.26091369 142.26132547 142.26170893 142.26200668 142.26216127 142.26216127 142.26200668 142.26170893 142.26132547 142.26091369 142.26040237 142.25971437 142.25881313 142.25782566 142.25685108 142.25514280 142.25514280 142.25514280 142.25514280 142.25514280 142.25514280 142.25514280 142.25514280 142.25514280 142.25514280 142.25514280 142.25514280 142.25514280 142.25514280 142.25514280 142.25514280 142.25514280 142.25514280 142.25672305 142.25789765 142.25930718 142.26049549 142.26153513 142.26242987 142.26314151 142.26368388 142.26409844 142.26442112 142.26464905 142.26476622 142.26476622 142.26464905 142.26442112 142.26409844 142.26368388 142.26314151 142.26242987 142.26153513 142.26049549 142.25930718 142.25789765 142.25672305 142.25514280 142.25514280 142.25514280 142.25514280 142.25514280 142.25514280 142.25514280 142.25514280 142.25514280 142.25514280 142.25514280 142.25514280 142.25514280 142.25514280 142.25514280 142.25713494 142.25888799 142.26043788 142.26189146 142.26314571 142.26419422 142.26504560 142.26570442 142.26619353 142.26654819 142.26680004 142.26696467 142.26704633 142.26704633 142.26696467 142.26680004 142.26654819 142.26619353 142.26570442 142.26504560 142.26419422 142.26314571 142.26189146 142.26043788 142.25888799 142.25713494 142.25514280 142.25514280 142.25514280 142.25514280 142.25514280 142.25514280 142.25514280 142.25514280 142.25514280 142.25514280 142.25514280 142.25514280 142.25609140 142.25750172 142.25938227 142.26123148 142.26291818 142.26440506 142.26564629 142.26663476 142.26738743 142.26793209 142.26830664 142.26855324 142.26870925 142.26880089 142.26884327 142.26884327 142.26880089 142.26870925 142.26855324 142.26830664 142.26793209 142.26738743 142.26663476 142.26564629 142.26440506 142.26291818 142.26123148 142.25938227 142.25750172 142.25609140 142.25514280 142.25514280 142.25514280 142.25514280 142.25514280 142.25514280 142.25514280 142.25514280 142.25514280 142.25514280 142.25743733 142.25949472 142.26155662 142.26350616 142.26524332 142.26670925 142.26787375 142.26874121 142.26934270 142.26972474 142.26994123 142.27004576 142.27008458 142.27009224 142.27009077 142.27009077 142.27009224 142.27008458 142.27004576 142.26994123 142.26972474 142.26934270 142.26874121 142.26787375 142.26670925 142.26524332 142.26350616 142.26155662 142.25949472 142.25743733 142.25514280 142.25514280 142.25514280 142.25514280 142.25514280 142.25514280 142.25514280 142.25514280 142.25514280 142.25693651 142.25912012 142.26136557 142.26355604 142.26556785 142.26730215 142.26869952 142.26974092 142.27044532 142.27086048 142.27105070 142.27108561 142.27103102 142.27094225 142.27086078 142.27081350 142.27081350 142.27086078 142.27094225 142.27103102 142.27108561 142.27105070 142.27086048 142.27044532 142.26974092 142.26869952 142.26730215 142.26556785 142.26355604 142.26136557 142.25912012 142.25693651 142.25514280 142.25514280 142.25514280 142.25514280 142.25514280 142.25514280 142.25514280 142.25640135 142.25834086 142.26062740 142.26299907 142.26527519 142.26731302 142.26900988 142.27031001 142.27120546 142.27173029 142.27194908 142.27194268 142.27179508 142.27158315 142.27137020 142.27120312 142.27111223 142.27111223 142.27120312 142.27137020 142.27158315 142.27179508 142.27194268 142.27194908 142.27173029 142.27120546 142.27031001 142.26900988 142.26731302 142.26527519 142.26299907 142.26062740 142.25834086 142.25640135 142.25514280 142.25514280 142.25514280 142.25514280 142.25514280 142.25514280 142.25710901 142.25935996 142.26181371 142.26429474 142.26662876 142.26866945 142.27031392 142.27151169 142.27226525 142.27262238 142.27266244 142.27248036 142.27217195 142.27182303 142.27150304 142.27126280 142.27113482 142.27113482 142.27126280 142.27150304 142.27182303 142.27217195 142.27248036 142.27266244 142.27262238 142.27226525 142.27151169 142.27031392 142.26866945 142.26662876 142.26429474 142.26181371 142.25935996 142.25710901 142.25514280 142.25514280 142.25514280 142.25514280 142.25514280 142.25514280 142.25756163 142.26004297 142.26262958 142.26518963 142.26755902 142.26959254 142.27118891 142.27230255 142.27294421 142.27317211 142.27307664 142.27276291 142.27233516 142.27188540 142.27148717 142.27119373 142.27103888 142.27103888 142.27119373 142.27148717 142.27188540 142.27233516 142.27276291 142.27307664 142.27317211 142.27294421 142.27230255 142.27118891 142.26959254 142.26755902 142.26518963 142.26262958 142.26004297 142.25756163 142.25514280 142.25514280 142.25514280 142.25514280 142.25514280 142.25585752 142.25792721 142.26041510 142.26305031 142.26564698 142.26803207 142.27005885 142.27162683 142.27269323 142.27327336 142.27343106 142.27326261 142.27287849 142.27238730 142.27188418 142.27144472 142.27112333 142.27095441 142.27095441 142.27112333 142.27144472 142.27188418 142.27238730 142.27287849 142.27326261 142.27343106 142.27327336 142.27269323 142.27162683 142.27005885 142.26803207 142.26564698 142.26305031 142.26041510 142.25792721 142.25585752 142.25514280 142.25514280 142.25514280 142.25514280 142.25585752 142.25792721 142.26041510 142.26305031 142.26564698 142.26803207 142.27005885 142.27162683 142.27269323 142.27327336 142.27343106 142.27326261 142.27287849 142.27238730 142.27188418 142.27144472 142.27112333 142.27095441 142.27095441 142.27112333 142.27144472 142.27188418 142.27238730 142.27287849 142.27326261 142.27343106 142.27327336 142.27269323 142.27162683 142.27005885 142.26803207 142.26564698 142.26305031 142.26041510 142.25792721 142.25585752 142.25514280 142.25514280 142.25514280 142.25514280 142.25514280 142.25756163 142.26004297 142.26262958 142.26518963 142.26755902 142.26959254 142.27118891 142.27230255 142.27294421 142.27317211 142.27307664 142.27276291 142.27233516 142.27188540 142.27148717 142.27119373 142.27103888 142.27103888 142.27119373 142.27148717 142.27188540 142.27233516 142.27276291 142.27307664 142.27317211 142.27294421 142.27230255 142.27118891 142.26959254 142.26755902 142.26518963 142.26262958 142.26004297 142.25756163 142.25514280 142.25514280 142.25514280 142.25514280 142.25514280 142.25514280 142.25710901 142.25935996 142.26181371 142.26429474 142.26662876 142.26866945 142.27031392 142.27151169 142.27226525 142.27262238 142.27266244 142.27248036 142.27217195 142.27182303 142.27150304 142.27126280 142.27113482 142.27113482 142.27126280 142.27150304 142.27182303 142.27217195 142.27248036 142.27266244 142.27262238 142.27226525 142.27151169 142.27031392 142.26866945 142.26662876 142.26429474 142.26181371 142.25935996 142.25710901 142.25514280 142.25514280 142.25514280 142.25514280 142.25514280 142.25514280 142.25640135 142.25834086 142.26062740 142.26299907 142.26527519 142.26731302 142.26900988 142.27031001 142.27120546 142.27173029 142.27194908 142.27194268 142.27179508 142.27158315 142.27137020 142.27120312 142.27111223 142.27111223 142.27120312 142.27137020 142.27158315 142.27179508 142.27194268 142.27194908 142.27173029 142.27120546 142.27031001 142.26900988 142.26731302 142.26527519 142.26299907 142.26062740 142.25834086 142.25640135 142.25514280 142.25514280 142.25514280 142.25514280 142.25514280 142.25514280 142.25514280 142.25693651 142.25912012 142.26136557 142.26355604 142.26556785 142.26730215 142.26869952 142.26974092 142.27044532 142.27086048 142.27105070 142.27108561 142.27103102 142.27094225 142.27086078 142.27081350 142.27081350 142.27086078 142.27094225 142.27103102 142.27108561 142.27105070 142.27086048 142.27044532 142.26974092 142.26869952 142.26730215 142.26556785 142.26355604 142.26136557 142.25912012 142.25693651 142.25514280 142.25514280 142.25514280 142.25514280 142.25514280 142.25514280 142.25514280 142.25514280 142.25514280 142.25743733 142.25949472 142.26155662 142.26350616 142.26524332 142.26670925 142.26787375 142.26874121 142.26934270 142.26972474 142.26994123 142.27004576 142.27008458 142.27009224 142.27009077 142.27009077 142.27009224 142.27008458 142.27004576 142.26994123 142.26972474 142.26934270 142.26874121 142.26787375 142.26670925 142.26524332 142.26350616 142.26155662 142.25949472 142.25743733 142.25514280 142.25514280 142.25514280 142.25514280 142.25514280 142.25514280 142.25514280 142.25514280 142.25514280 142.25514280 142.25609140 142.25750172 142.25938227 142.26123148 142.26291818 142.26440506 142.26564629 142.26663476 142.26738743 142.26793209 142.26830664 142.26855324 142.26870925 142.26880089 142.26884327 142.26884327 142.26880089 142.26870925 142.26855324 142.26830664 142.26793209 142.26738743 142.26663476 142.26564629 142.26440506 142.26291818 142.26123148 142.25938227 142.25750172 142.25609140 142.25514280 142.25514280 142.25514280 142.25514280 142.25514280 142.25514280 142.25514280 142.25514280 142.25514280 142.25514280 142.25514280 142.25514280 142.25713494 142.25888799 142.26043788 142.26189146 142.26314571 142.26419422 142.26504560 142.26570442 142.26619353 142.26654819 142.26680004 142.26696467 142.26704633 142.26704633 142.26696467 142.26680004 142.26654819 142.26619353 142.26570442 142.26504560 142.26419422 142.26314571 142.26189146 142.26043788 142.25888799 142.25713494 142.25514280 142.25514280 142.25514280 142.25514280 142.25514280 142.25514280 142.25514280 142.25514280 142.25514280 142.25514280 142.25514280 142.25514280 142.25514280 142.25514280 142.25514280 142.25672305 142.25789765 142.25930718 142.26049549 142.26153513 142.26242987 142.26314151 142.26368388 142.26409844 142.26442112 142.26464905 142.26476622 142.26476622 142.26464905 142.26442112 142.26409844 142.26368388 142.26314151 142.26242987 142.26153513 142.26049549 142.25930718 142.25789765 142.25672305 142.25514280 142.25514280 142.25514280 142.25514280 142.25514280 142.25514280 142.25514280 142.25514280 142.25514280 142.25514280 142.25514280 142.25514280 142.25514280 142.25514280 142.25514280 142.25514280 142.25514280 142.25514280 142.25685108 142.25782566 142.25881313 142.25971437 142.26040237 142.26091369 142.26132547 142.26170893 142.26200668 142.26216127 142.26216127 142.26200668 142.26170893 142.26132547 142.26091369 142.26040237 142.25971437 142.25881313 142.25782566 142.25685108 142.25514280 142.25514280 142.25514280 142.25514280 142.25514280 142.25514280 142.25514280 142.25514280 142.25514280 142.25514280 142.25514280 142.25514280 142.25514280 142.25514280 142.25514280 142.25514280 142.25514280 142.25514280 142.25514280 142.25514280 142.25514280 142.25514280 142.25629583 142.25715873 142.25768291 142.25803339 142.25834967 142.25886358 142.25927799 142.25947702 142.25947702 142.25927799 142.25886358 142.25834967 142.25803339 142.25768291 142.25715873 142.25629583 142.25514280 142.25514280 142.25514280 142.25514280 142.25514280 142.25514280 142.25514280 142.25514280 142.25514280 142.25514280 142.25514280 142.25514280 142.25514280 142.25514280 142.25514280 142.25514280 142.25514280 142.25514280 142.25514280 142.25514280 142.25514280 142.25514280 142.25514280 142.25514280 142.25514280 142.25514280 142.25514280 142.25514280 142.25514280 142.25623710 142.25682377 142.25703763 142.25703763 142.25682377 142.25623710 142.25514280 142.25514280 142.25514280 142.25514280 142.25514280 142.25514280 142.25514280 142.25514280 142.25514280 142.25514280 142.25514280 142.25514280 142.25514280 142.25514280 142.25514280 142.25514280 142.25514280 142.25514280 142.25514280 142.25514280 142.25514280 142.25514280 142.25514280 142.25514280 142.25514280 142.25514280 142.25514280 142.25514280 142.25514280 142.25514280 142.25514280 142.25514280 142.25514280 142.25514280 142.25514280 142.25514280 142.25514280 142.25514280 142.25514280 142.25514280 142.25514280 142.25514280 142.25514280 142.25514280 142.25514280 142.25514280 142.25514280 142.25514280 142.25514280 142.25514280 142.25514280 142.25514280 142.25514280 142.25514280 142.25514280 142.25514280 142.25514280 142.25514280 142.25514280 142.25514280 142.25514280 142.25514280 142.25514280 142.25514280 142.25514280 142.25514280 142.25514280 142.25514280 142.25514280 142.25514280 142.25514280 142.25514280 142.25514280 142.25514280 142.25514280 142.25514280 142.25514280 142.25514280 142.25514280 142.25514280 142.25514280 142.25514280 142.25514280 142.25514280 142.25514280 142.25514280 142.25514280 142.25514280 142.25514280 142.25514280 142.25514280 142.25514280 142.25514280 142.25514280 142.25514280 142.25514280 142.25514280 142.25514280 142.25514280 142.25514280 142.25514280 142.25514280 142.25514280 142.25514280 142.25514280 142.25514280 142.25514280 142.25514280 142.25514280 142.25514280 142.25514280 142.25514280 142.25514280 142.25514280 142.25514280 142.25514280 142.25514280 142.25514280 142.25514280 142.25514280 142.25514280 142.25514280 142.25514280 142.25514280 142.25514280 142.25514280 142.25514280 142.25514280 142.25514280 142.25514280 142.25514280 142.25514280 142.25514280 142.25514280 142.25514280 142.25514280 142.25514280 142.25514280 142.25514280 142.25514280 142.25514280 142.25514280 142.25514280 142.25514280 142.25514280 142.25514280 142.25514280 142.25514280 142.25514280 142.25514280 142.25514280 142.25514280 142.25514280 142.25514280 142.25514280 142.25514280 142.25514280 142.25514280 142.25514280 142.25514280 142.25514280 142.25514280 142.25514280 142.25514280 142.25514280 142.25514280 142.25514280 142.25514280 142.25514280 142.25514280 142.25514280 142.25514280 142.25514280 142.25514280 142.25514280 142.25514280 142.25514280 142.25514280 142.25514280 142.25514280 142.25514280 142.25514280 142.25514280 142.25514280 142.25514280 142.25514280 142.25514280 142.25514280 142.25514280 142.25514280 142.25514280 142.25514280 142.25514280 142.25514280 142.25514280 142.25514280 142.25514280 142.25514280 142.25514280 142.25514280 142.25514280 142.25514280 142.25514280 142.25514280 142.25514280 142.25514280 142.25514280 142.25514280 142.25514280 142.25514280 142.25514280 142.25514280 142.25514280 142.25514280 142.25514280 142.25514280 142.25514280 142.25514280 142.25514280 142.25514280 142.25514280 142.25514280 142.25514280 142.25514280 142.25514280 142.25514280 142.25514280 142.25514280 142.25514280 142.25514280 142.25514280 142.25514280 142.25514280 142.25514280 142.25514280 142.25514280 142.25514280 142.25514280 142.25514280 142.25514280 142.25514280 142.25514280 142.25514280 142.25514280 142.25514280 142.25514280 142.25514280 142.25514280 142.25514280 142.25514280 142.25514280 142.25514280 142.25514280 142.25514280 142.25514280 142.25514280 142.25514280 142.25514280 142.25514280 142.25514280 142.25514280 142.25514280 142.25514280 142.25514280 142.25514280 142.25514280 142.25514280 142.25514280 142.25514280 142.25514280 142.25514280 142.25514280 142.25514280 142.25514280 142.25514280 142.25514280 142.25514280 142.25514280 142.25514280 142.25514280 142.25514280 142.25514280 142.25514280 142.25514280 142.25514280 142.25514280 142.25514280 142.25514280 142.25514280 142.25514280 142.25514280 142.25514280 142.25514280 142.25514280 142.25514280 142.25514280 142.25514280 142.25514280 142.25514280 142.25514280 142.25514280 142.25514280 142.25514280 142.25514280 142.25514280 142.25514280 142.25514280 142.25514280 142.25514280 142.25514280 142.25514280 142.25514280 142.25514280 142.25514280 142.25514280 142.25514280 142.25514280 142.25514280 142.25514280 142.25514280 142.25514280 142.25514280 142.25514280 142.25514280 142.25514280 142.25514280 142.25514280 142.25514280 142.25514280 142.25514280 142.25514280 142.25514280 142.25514280 142.25514280 142.25514280 142.25514280 142.25514280 