# vtk DataFile Version 3.0
VTK - Matlab export
ASCII
DATASET STRUCTURED_POINTS
DIMENSIONS 40 40 1
SPACING 1 1 1
ORIGIN 0 0 0
POINT_DATA 1600
SCALARS Proofstrength float 1
LOOKUP_TABLE default
142.25514280 142.25514280 142.25514280 142.25514280 142.25514280 142.25514280 142.25514280 142.25514280 142.25514280 142.25514280 142.25514280 142.25514280 142.25514280 142.25514280 142.25514280 142.25514280 142.25514280 142.25514280 142.25514280 142.25514280 142.25514280 142.25514280 142.25514280 142.25514280 142.25514280 142.25514280 142.25514280 142.25514280 142.25514280 142.25514280 142.25514280 142.25514280 142.25514280 142.25514280 142.25514280 142.25514280 142.25514280 142.25514280 142.25514280 142.25514280 142.25514280 142.25514280 142.25514280 142.25514280 142.25514280 142.25514280 142.25514280 142.25514280 142.25514280 142.25514280 142.25514280 142.25514280 142.25514280 142.25514280 142.25514280 142.25514280 142.25514280 142.25514280 142.25514280 142.25514280 142.25514280 142.25514280 142.25514280 142.25514280 142.25514280 142.25514280 142.25514280 142.25514280 142.25514280 142.25514280 142.25514280 142.25514280 142.25514280 142.25514280 142.25514280 142.25514280 142.25514280 142.25514280 142.25514280 142.25514280 142.25514280 142.25514280 142.25514280 142.25514280 142.25514280 142.25514280 142.25514280 142.25514280 142.25514280 142.25514280 142.25514280 142.25514280 142.25514280 142.25514280 142.25514280 142.25514280 142.25514280 142.25514280 142.25514280 142.25514280 142.25514280 142.25514280 142.25514280 142.25514280 142.25514280 142.25514280 142.25514280 142.25514280 142.25514280 142.25514280 142.25514280 142.25514280 142.25514280 142.25514280 142.25514280 142.25514280 142.25514280 142.25514280 142.25514280 142.25514280 142.25514280 142.25514280 142.25514280 142.25514280 142.25514280 142.25514280 142.25514280 142.25514280 142.25514280 142.25514280 142.25514280 142.25514280 142.25514280 142.25514280 142.25514280 142.25514280 142.25514280 142.25514280 142.25514280 142.25514280 142.25514280 142.25514280 142.25514280 142.25514280 142.25514280 142.25514280 142.25514280 142.25514280 142.25514280 142.25514280 142.25514280 142.25514280 142.25514280 142.25514280 142.25514280 142.25514280 142.25514280 142.25514280 142.25514280 142.25514280 142.25514280 142.25514280 142.25514280 142.25514280 142.25514280 142.25514280 142.25514280 142.25514280 142.25514280 142.25514280 142.25514280 142.25514280 142.25514280 142.25514280 142.25514280 142.25514280 142.25514280 142.25514280 142.25514280 142.25514280 142.25514280 142.25514280 142.25514280 142.25514280 142.25514280 142.25514280 142.25514280 142.25514280 142.25514280 142.25514280 142.25514280 142.25514280 142.25514280 142.25514280 142.25514280 142.25514280 142.25514280 142.25514280 142.25514280 142.25514280 142.25514280 142.25514280 142.25514280 142.25514280 142.25514280 142.25514280 142.25514280 142.25514280 142.25514280 142.25514280 142.25514280 142.25514280 142.25514280 142.25514280 142.25514280 142.25514280 142.25514280 142.25514280 142.25514280 142.25514280 142.25514280 142.25514280 142.25514280 142.25514280 142.25514280 142.25514280 142.25514280 142.25514280 142.25514280 142.25514280 142.25514280 142.25514280 142.25514280 142.25514280 142.25514280 142.25514280 142.25514280 142.25514280 142.25514280 142.25514280 142.25514280 142.25514280 142.25514280 142.25514280 142.25514280 142.25514280 142.25514280 142.25514280 142.25514280 142.25514280 142.25514280 142.25514280 142.25514280 142.25514280 142.25514280 142.25514280 142.25514280 142.25514280 142.25514280 142.25514280 142.25514280 142.25514280 142.25514280 142.25514280 142.25514280 142.25514280 142.25514280 142.25514280 142.25514280 142.25514280 142.25514280 142.25514280 142.25514280 142.25514280 142.25514280 142.25514280 142.25514280 142.25514280 142.25514280 142.25514280 142.25514280 142.25514280 142.25514280 142.25514280 142.25514280 142.25514280 142.25514280 142.25514280 142.25514280 142.25514280 142.25514280 142.25514280 142.25514280 142.25514280 142.25514280 142.25514280 142.25514280 142.25514280 142.25514280 142.25514280 142.25514280 142.25514280 142.25514280 142.25514280 142.25514280 142.25514280 142.25514280 142.25514280 142.25514280 142.25514280 142.25514280 142.25514280 142.25514280 142.25514280 142.25514280 142.25514280 142.25514280 142.25514280 142.25514280 142.25514280 142.25514280 142.25514280 142.25514280 142.25514280 142.25514280 142.25514280 142.25514280 142.25514280 142.25514280 142.25514280 142.25514280 142.25514280 142.25514280 142.25514280 142.25514280 142.25514280 142.25514280 142.25602108 142.25649021 142.25666084 142.25666084 142.25649021 142.25602108 142.25514280 142.25514280 142.25514280 142.25514280 142.25514280 142.25514280 142.25514280 142.25514280 142.25514280 142.25514280 142.25514280 142.25514280 142.25514280 142.25514280 142.25514280 142.25514280 142.25514280 142.25514280 142.25514280 142.25514280 142.25514280 142.25514280 142.25514280 142.25514280 142.25514280 142.25514280 142.25514280 142.25514280 142.25514280 142.25606155 142.25675276 142.25717729 142.25746498 142.25772503 142.25814095 142.25847475 142.25863488 142.25863488 142.25847475 142.25814095 142.25772503 142.25746498 142.25717729 142.25675276 142.25606155 142.25514280 142.25514280 142.25514280 142.25514280 142.25514280 142.25514280 142.25514280 142.25514280 142.25514280 142.25514280 142.25514280 142.25514280 142.25514280 142.25514280 142.25514280 142.25514280 142.25514280 142.25514280 142.25514280 142.25514280 142.25514280 142.25514280 142.25649377 142.25727415 142.25807271 142.25880846 142.25937846 142.25980891 142.26015796 142.26047985 142.26072783 142.26085627 142.26085627 142.26072783 142.26047985 142.26015796 142.25980891 142.25937846 142.25880846 142.25807271 142.25727415 142.25649377 142.25514280 142.25514280 142.25514280 142.25514280 142.25514280 142.25514280 142.25514280 142.25514280 142.25514280 142.25514280 142.25514280 142.25514280 142.25514280 142.25514280 142.25514280 142.25514280 142.25514280 142.25514280 142.25637836 142.25730976 142.25843994 142.25941031 142.26027526 142.26103310 142.26164878 142.26212846 142.26250067 142.26279071 142.26299463 142.26309916 142.26309916 142.26299463 142.26279071 142.26250067 142.26212846 142.26164878 142.26103310 142.26027526 142.25941031 142.25843994 142.25730976 142.25637836 142.25514280 142.25514280 142.25514280 142.25514280 142.25514280 142.25514280 142.25514280 142.25514280 142.25514280 142.25514280 142.25514280 142.25514280 142.25514280 142.25514280 142.25514280 142.25668920 142.25806933 142.25931467 142.26050852 142.26156705 142.26247922 142.26324401 142.26385705 142.26432927 142.26468280 142.26493880 142.26510750 142.26519142 142.26519142 142.26510750 142.26493880 142.26468280 142.26432927 142.26385705 142.26324401 142.26247922 142.26156705 142.26050852 142.25931467 142.25806933 142.25668920 142.25514280 142.25514280 142.25514280 142.25514280 142.25514280 142.25514280 142.25514280 142.25514280 142.25514280 142.25514280 142.25514280 142.25514280 142.25586725 142.25695592 142.25842792 142.25990582 142.26129218 142.26255631 142.26365591 142.26457533 142.26531611 142.26588868 142.26631328 142.26661612 142.26682234 142.26695054 142.26701197 142.26701197 142.26695054 142.26682234 142.26661612 142.26631328 142.26588868 142.26531611 142.26457533 142.26365591 142.26255631 142.26129218 142.25990582 142.25842792 142.25695592 142.25586725 142.25514280 142.25514280 142.25514280 142.25514280 142.25514280 142.25514280 142.25514280 142.25514280 142.25514280 142.25514280 142.25689067 142.25848226 142.26011365 142.26170291 142.26317503 142.26447973 142.26558270 142.26647244 142.26715696 142.26765772 142.26800516 142.26823341 142.26837455 142.26845424 142.26848976 142.26848976 142.26845424 142.26837455 142.26823341 142.26800516 142.26765772 142.26715696 142.26647244 142.26558270 142.26447973 142.26317503 142.26170291 142.26011365 142.25848226 142.25689067 142.25514280 142.25514280 142.25514280 142.25514280 142.25514280 142.25514280 142.25514280 142.25514280 142.25514280 142.25649594 142.25816378 142.25991391 142.26167166 142.26335071 142.26487536 142.26619136 142.26726824 142.26810059 142.26870471 142.26911240 142.26936440 142.26950386 142.26957053 142.26959649 142.26960387 142.26960387 142.26959649 142.26957053 142.26950386 142.26936440 142.26911240 142.26870471 142.26810059 142.26726824 142.26619136 142.26487536 142.26335071 142.26167166 142.25991391 142.25816378 142.25649594 142.25514280 142.25514280 142.25514280 142.25514280 142.25514280 142.25514280 142.25514280 142.25608434 142.25754818 142.25930164 142.26116630 142.26302086 142.26476466 142.26631711 142.26762302 142.26865552 142.26941574 142.26992853 142.27023547 142.27038701 142.27043492 142.27042618 142.27039857 142.27037814 142.27037814 142.27039857 142.27042618 142.27043492 142.27038701 142.27023547 142.26992853 142.26941574 142.26865552 142.26762302 142.26631711 142.26476466 142.26302086 142.26116630 142.25930164 142.25754818 142.25608434 142.25514280 142.25514280 142.25514280 142.25514280 142.25514280 142.25514280 142.25661120 142.25830954 142.26019726 142.26216307 142.26409155 142.26587894 142.26744245 142.26872732 142.26971025 142.27039840 142.27082430 142.27103796 142.27109807 142.27106374 142.27098796 142.27091309 142.27086826 142.27086826 142.27091309 142.27098796 142.27106374 142.27109807 142.27103796 142.27082430 142.27039840 142.26971025 142.26872732 142.26744245 142.26587894 142.26409155 142.26216307 142.26019726 142.25830954 142.25661120 142.25514280 142.25514280 142.25514280 142.25514280 142.25514280 142.25514280 142.25694719 142.25881922 142.26081379 142.26285399 142.26483266 142.26664640 142.26821192 142.26947542 142.27041651 142.27104700 142.27140516 142.27154726 142.27153797 142.27144172 142.27131579 142.27120572 142.27114278 142.27114278 142.27120572 142.27131579 142.27144172 142.27153797 142.27154726 142.27140516 142.27104700 142.27041651 142.26947542 142.26821192 142.26664640 142.26483266 142.26285399 142.26081379 142.25881922 142.25694719 142.25514280 142.25514280 142.25514280 142.25514280 142.25514280 142.25567395 142.25721798 142.25909653 142.26113192 142.26320799 142.26521138 142.26703727 142.26860202 142.26985242 142.27076972 142.27136825 142.27168939 142.27179270 142.27174602 142.27161655 142.27146380 142.27133496 142.27126238 142.27126238 142.27133496 142.27146380 142.27161655 142.27174602 142.27179270 142.27168939 142.27136825 142.27076972 142.26985242 142.26860202 142.26703727 142.26521138 142.26320799 142.26113192 142.25909653 142.25721798 142.25567395 142.25514280 142.25514280 142.25514280 142.25514280 142.25567395 142.25721798 142.25909653 142.26113192 142.26320799 142.26521138 142.26703727 142.26860202 142.26985242 142.27076972 142.27136825 142.27168939 142.27179270 142.27174602 142.27161655 142.27146380 142.27133496 142.27126238 142.27126238 142.27133496 142.27146380 142.27161655 142.27174602 142.27179270 142.27168939 142.27136825 142.27076972 142.26985242 142.26860202 142.26703727 142.26521138 142.26320799 142.26113192 142.25909653 142.25721798 142.25567395 142.25514280 142.25514280 142.25514280 142.25514280 142.25514280 142.25694719 142.25881922 142.26081379 142.26285399 142.26483266 142.26664640 142.26821192 142.26947542 142.27041651 142.27104700 142.27140516 142.27154726 142.27153797 142.27144172 142.27131579 142.27120572 142.27114278 142.27114278 142.27120572 142.27131579 142.27144172 142.27153797 142.27154726 142.27140516 142.27104700 142.27041651 142.26947542 142.26821192 142.26664640 142.26483266 142.26285399 142.26081379 142.25881922 142.25694719 142.25514280 142.25514280 142.25514280 142.25514280 142.25514280 142.25514280 142.25661120 142.25830954 142.26019726 142.26216307 142.26409155 142.26587894 142.26744245 142.26872732 142.26971025 142.27039840 142.27082430 142.27103796 142.27109807 142.27106374 142.27098796 142.27091309 142.27086826 142.27086826 142.27091309 142.27098796 142.27106374 142.27109807 142.27103796 142.27082430 142.27039840 142.26971025 142.26872732 142.26744245 142.26587894 142.26409155 142.26216307 142.26019726 142.25830954 142.25661120 142.25514280 142.25514280 142.25514280 142.25514280 142.25514280 142.25514280 142.25608434 142.25754818 142.25930164 142.26116630 142.26302086 142.26476466 142.26631711 142.26762302 142.26865552 142.26941574 142.26992853 142.27023547 142.27038701 142.27043492 142.27042618 142.27039857 142.27037814 142.27037814 142.27039857 142.27042618 142.27043492 142.27038701 142.27023547 142.26992853 142.26941574 142.26865552 142.26762302 142.26631711 142.26476466 142.26302086 142.26116630 142.25930164 142.25754818 142.25608434 142.25514280 142.25514280 142.25514280 142.25514280 142.25514280 142.25514280 142.25514280 142.25649594 142.25816378 142.25991391 142.26167166 142.26335071 142.26487536 142.26619136 142.26726824 142.26810059 142.26870471 142.26911240 142.26936440 142.26950386 142.26957053 142.26959649 142.26960387 142.26960387 142.26959649 142.26957053 142.26950386 142.26936440 142.26911240 142.26870471 142.26810059 142.26726824 142.26619136 142.26487536 142.26335071 142.26167166 142.25991391 142.25816378 142.25649594 142.25514280 142.25514280 142.25514280 142.25514280 142.25514280 142.25514280 142.25514280 142.25514280 142.25514280 142.25689067 142.25848226 142.26011365 142.26170291 142.26317503 142.26447973 142.26558270 142.26647244 142.26715696 142.26765772 142.26800516 142.26823341 142.26837455 142.26845424 142.26848976 142.26848976 142.26845424 142.26837455 142.26823341 142.26800516 142.26765772 142.26715696 142.26647244 142.26558270 142.26447973 142.26317503 142.26170291 142.26011365 142.25848226 142.25689067 142.25514280 142.25514280 142.25514280 142.25514280 142.25514280 142.25514280 142.25514280 142.25514280 142.25514280 142.25514280 142.25586725 142.25695592 142.25842792 142.25990582 142.26129218 142.26255631 142.26365591 142.26457533 142.26531611 142.26588868 142.26631328 142.26661612 142.26682234 142.26695054 142.26701197 142.26701197 142.26695054 142.26682234 142.26661612 142.26631328 142.26588868 142.26531611 142.26457533 142.26365591 142.26255631 142.26129218 142.25990582 142.25842792 142.25695592 142.25586725 142.25514280 142.25514280 142.25514280 142.25514280 142.25514280 142.25514280 142.25514280 142.25514280 142.25514280 142.25514280 142.25514280 142.25514280 142.25668920 142.25806933 142.25931467 142.26050852 142.26156705 142.26247922 142.26324401 142.26385705 142.26432927 142.26468280 142.26493880 142.26510750 142.26519142 142.26519142 142.26510750 142.26493880 142.26468280 142.26432927 142.26385705 142.26324401 142.26247922 142.26156705 142.26050852 142.25931467 142.25806933 142.25668920 142.25514280 142.25514280 142.25514280 142.25514280 142.25514280 142.25514280 142.25514280 142.25514280 142.25514280 142.25514280 142.25514280 142.25514280 142.25514280 142.25514280 142.25514280 142.25637836 142.25730976 142.25843994 142.25941031 142.26027526 142.26103310 142.26164878 142.26212846 142.26250067 142.26279071 142.26299463 142.26309916 142.26309916 142.26299463 142.26279071 142.26250067 142.26212846 142.26164878 142.26103310 142.26027526 142.25941031 142.25843994 142.25730976 142.25637836 142.25514280 142.25514280 142.25514280 142.25514280 142.25514280 142.25514280 142.25514280 142.25514280 142.25514280 142.25514280 142.25514280 142.25514280 142.25514280 142.25514280 142.25514280 142.25514280 142.25514280 142.25514280 142.25649377 142.25727415 142.25807271 142.25880846 142.25937846 142.25980891 142.26015796 142.26047985 142.26072783 142.26085627 142.26085627 142.26072783 142.26047985 142.26015796 142.25980891 142.25937846 142.25880846 142.25807271 142.25727415 142.25649377 142.25514280 142.25514280 142.25514280 142.25514280 142.25514280 142.25514280 142.25514280 142.25514280 142.25514280 142.25514280 142.25514280 142.25514280 142.25514280 142.25514280 142.25514280 142.25514280 142.25514280 142.25514280 142.25514280 142.25514280 142.25514280 142.25514280 142.25606155 142.25675276 142.25717729 142.25746498 142.25772503 142.25814095 142.25847475 142.25863488 142.25863488 142.25847475 142.25814095 142.25772503 142.25746498 142.25717729 142.25675276 142.25606155 142.25514280 142.25514280 142.25514280 142.25514280 142.25514280 142.25514280 142.25514280 142.25514280 142.25514280 142.25514280 142.25514280 142.25514280 142.25514280 142.25514280 142.25514280 142.25514280 142.25514280 142.25514280 142.25514280 142.25514280 142.25514280 142.25514280 142.25514280 142.25514280 142.25514280 142.25514280 142.25514280 142.25514280 142.25514280 142.25602108 142.25649021 142.25666084 142.25666084 142.25649021 142.25602108 142.25514280 142.25514280 142.25514280 142.25514280 142.25514280 142.25514280 142.25514280 142.25514280 142.25514280 142.25514280 142.25514280 142.25514280 142.25514280 142.25514280 142.25514280 142.25514280 142.25514280 142.25514280 142.25514280 142.25514280 142.25514280 142.25514280 142.25514280 142.25514280 142.25514280 142.25514280 142.25514280 142.25514280 142.25514280 142.25514280 142.25514280 142.25514280 142.25514280 142.25514280 142.25514280 142.25514280 142.25514280 142.25514280 142.25514280 142.25514280 142.25514280 142.25514280 142.25514280 142.25514280 142.25514280 142.25514280 142.25514280 142.25514280 142.25514280 142.25514280 142.25514280 142.25514280 142.25514280 142.25514280 142.25514280 142.25514280 142.25514280 142.25514280 142.25514280 142.25514280 142.25514280 142.25514280 142.25514280 142.25514280 142.25514280 142.25514280 142.25514280 142.25514280 142.25514280 142.25514280 142.25514280 142.25514280 142.25514280 142.25514280 142.25514280 142.25514280 142.25514280 142.25514280 142.25514280 142.25514280 142.25514280 142.25514280 142.25514280 142.25514280 142.25514280 142.25514280 142.25514280 142.25514280 142.25514280 142.25514280 142.25514280 142.25514280 142.25514280 142.25514280 142.25514280 142.25514280 142.25514280 142.25514280 142.25514280 142.25514280 142.25514280 142.25514280 142.25514280 142.25514280 142.25514280 142.25514280 142.25514280 142.25514280 142.25514280 142.25514280 142.25514280 142.25514280 142.25514280 142.25514280 142.25514280 142.25514280 142.25514280 142.25514280 142.25514280 142.25514280 142.25514280 142.25514280 142.25514280 142.25514280 142.25514280 142.25514280 142.25514280 142.25514280 142.25514280 142.25514280 142.25514280 142.25514280 142.25514280 142.25514280 142.25514280 142.25514280 142.25514280 142.25514280 142.25514280 142.25514280 142.25514280 142.25514280 142.25514280 142.25514280 142.25514280 142.25514280 142.25514280 142.25514280 142.25514280 142.25514280 142.25514280 142.25514280 142.25514280 142.25514280 142.25514280 142.25514280 142.25514280 142.25514280 142.25514280 142.25514280 142.25514280 142.25514280 142.25514280 142.25514280 142.25514280 142.25514280 142.25514280 142.25514280 142.25514280 142.25514280 142.25514280 142.25514280 142.25514280 142.25514280 142.25514280 142.25514280 142.25514280 142.25514280 142.25514280 142.25514280 142.25514280 142.25514280 142.25514280 142.25514280 142.25514280 142.25514280 142.25514280 142.25514280 142.25514280 142.25514280 142.25514280 142.25514280 142.25514280 142.25514280 142.25514280 142.25514280 142.25514280 142.25514280 142.25514280 142.25514280 142.25514280 142.25514280 142.25514280 142.25514280 142.25514280 142.25514280 142.25514280 142.25514280 142.25514280 142.25514280 142.25514280 142.25514280 142.25514280 142.25514280 142.25514280 142.25514280 142.25514280 142.25514280 142.25514280 142.25514280 142.25514280 142.25514280 142.25514280 142.25514280 142.25514280 142.25514280 142.25514280 142.25514280 142.25514280 142.25514280 142.25514280 142.25514280 142.25514280 142.25514280 142.25514280 142.25514280 142.25514280 142.25514280 142.25514280 142.25514280 142.25514280 142.25514280 142.25514280 142.25514280 142.25514280 142.25514280 142.25514280 142.25514280 142.25514280 142.25514280 142.25514280 142.25514280 142.25514280 142.25514280 142.25514280 142.25514280 142.25514280 142.25514280 142.25514280 142.25514280 142.25514280 142.25514280 142.25514280 142.25514280 142.25514280 142.25514280 142.25514280 142.25514280 142.25514280 142.25514280 142.25514280 142.25514280 142.25514280 142.25514280 142.25514280 142.25514280 142.25514280 142.25514280 142.25514280 142.25514280 142.25514280 142.25514280 142.25514280 142.25514280 142.25514280 142.25514280 142.25514280 142.25514280 142.25514280 142.25514280 142.25514280 142.25514280 142.25514280 142.25514280 142.25514280 142.25514280 142.25514280 142.25514280 142.25514280 142.25514280 142.25514280 142.25514280 142.25514280 142.25514280 142.25514280 142.25514280 142.25514280 142.25514280 142.25514280 142.25514280 142.25514280 142.25514280 142.25514280 142.25514280 142.25514280 142.25514280 142.25514280 142.25514280 142.25514280 142.25514280 142.25514280 142.25514280 142.25514280 142.25514280 142.25514280 142.25514280 142.25514280 142.25514280 142.25514280 142.25514280 142.25514280 142.25514280 142.25514280 142.25514280 142.25514280 142.25514280 142.25514280 