# vtk DataFile Version 3.0
VTK - Matlab export
ASCII
DATASET STRUCTURED_POINTS
DIMENSIONS 40 40 1
SPACING 1 1 1
ORIGIN 0 0 0
POINT_DATA 1600
SCALARS lambda-2 float 1
LOOKUP_TABLE default
7.22156776 7.22156776 7.22156776 7.22156776 7.22156776 7.22156776 7.22156776 7.22156776 7.22156776 7.22156776 7.22156776 7.22156776 7.22156776 7.22156776 7.22156776 7.22156776 7.22156776 7.22156776 7.22156776 7.22156776 7.22156776 7.22156776 7.22156776 7.22156776 7.22156776 7.22156776 7.22156776 7.22156776 7.22156776 7.22156776 7.22156776 7.22156776 7.22156776 7.22156776 7.22156776 7.22156776 7.22156776 7.22156776 7.22156776 7.22156776 7.22156776 7.22156776 7.22156776 7.22156776 7.22156776 7.22156776 7.22156776 7.22156776 7.22156776 7.22156776 7.22156776 7.22156776 7.22156776 7.22156776 7.22156776 7.22156776 7.22156776 7.22156776 7.22156776 7.22156776 7.22156776 7.22156776 7.22156776 7.22156776 7.22156776 7.22156776 7.22156776 7.22156776 7.22156776 7.22156776 7.22156776 7.22156776 7.22156776 7.22156776 7.22156776 7.22156776 7.22156776 7.22156776 7.22156776 7.22156776 7.22156776 7.22156776 7.22156776 7.22156776 7.22156776 7.22156776 7.22156776 7.22156776 7.22156776 7.22156776 7.22156776 7.22156776 7.22156776 7.22156776 7.22156776 7.22156776 7.22156776 7.22156776 7.22156776 7.22156776 7.22156776 7.22156776 7.22156776 7.22156776 7.22156776 7.22156776 7.22156776 7.22156776 7.22156776 7.22156776 7.22156776 7.22156776 7.22156776 7.22156776 7.22156776 7.22156776 7.22156776 7.22156776 7.22156776 7.22156776 7.22156776 7.22156776 7.22156776 7.22156776 7.22156776 7.22156776 7.22156776 7.22156776 7.22156776 7.22156776 7.22156776 7.22156776 7.22156776 7.22156776 7.22156776 7.22156776 7.22156776 7.22156776 7.22156776 7.22156776 7.22156776 7.22156776 7.22156776 7.22156776 7.22156776 7.22156776 7.22156776 7.22156776 7.22156776 7.22156776 7.22156776 7.22156776 7.22156776 7.22156776 7.22156776 7.22156776 7.22156776 7.22156776 7.22156776 7.22156776 7.22156776 7.22156776 7.22156776 7.22156776 7.22156776 7.22156776 7.22156776 7.22156776 7.22156776 7.22156776 7.22156776 7.22156776 7.22156776 7.22156776 7.22156776 7.22156776 7.22156776 7.22156776 7.22156776 7.22156776 7.22156776 7.22156776 7.22156776 7.22156776 7.22156776 7.22156776 7.22156776 7.22156776 7.22156776 7.22156776 7.22156776 7.22156776 7.22156776 7.22156776 7.22156776 7.22156776 7.22156776 7.22156776 7.22156776 7.22156776 7.22156776 7.22156776 7.22156776 7.22156776 7.22156776 7.22156776 7.22156776 7.22156776 7.22156776 7.22156776 7.22156776 7.22156776 7.22156776 7.22156776 7.22156776 7.22156776 7.22156776 7.22156776 7.22156776 7.22156776 7.22156776 7.22156776 7.22156776 7.22156776 7.22156776 7.22156776 7.22156776 7.22156776 7.22156776 7.22156776 7.22156776 7.22156776 7.22156776 7.22156776 7.22156776 7.22156776 7.22156776 7.22156776 7.22156776 7.22156776 7.22156776 7.22156776 7.22156776 7.22156776 7.22156776 7.22156776 7.22156776 7.22156776 7.22156776 7.22156776 7.22156776 7.22156776 7.22156776 7.22156776 7.22156776 7.22156776 7.22156776 7.22156776 7.22156776 7.22156776 7.22156776 7.22156776 7.22156776 7.22156776 7.22156776 7.22156776 7.22156776 7.22156776 7.22156776 7.22156776 7.22156776 7.22156776 7.22156776 7.22156776 7.22156776 7.22156776 7.22156776 7.22156776 7.22156776 7.22156776 7.22156776 7.22156776 7.22156776 7.22156776 7.22156776 7.22156776 7.22156776 7.22156776 7.22156776 7.22156776 7.22156776 7.22156776 7.22156776 7.22156776 7.22156776 7.22156776 7.22156776 7.22156776 7.22156776 7.22156776 7.22156776 7.22156776 7.22156776 7.22156776 7.22156776 7.22156776 7.22156776 7.22156776 7.22156776 7.22156776 7.22156776 7.22156776 7.22156776 7.22156776 7.22156776 7.22156776 7.22156776 7.22156776 7.22156776 7.22156776 7.22156776 7.22156776 7.22156776 7.22156776 7.22156776 7.22156776 7.22156776 7.22156776 7.22156776 7.22156776 7.22156776 7.22156776 7.22156776 7.22156776 7.22156776 7.22156776 7.22156776 7.22053086 7.21997005 7.21976437 7.21976437 7.21997005 7.22053086 7.22156776 7.22156776 7.22156776 7.22156776 7.22156776 7.22156776 7.22156776 7.22156776 7.22156776 7.22156776 7.22156776 7.22156776 7.22156776 7.22156776 7.22156776 7.22156776 7.22156776 7.22156776 7.22156776 7.22156776 7.22156776 7.22156776 7.22156776 7.22156776 7.22156776 7.22156776 7.22156776 7.22156776 7.22156776 7.22047228 7.21965561 7.21916637 7.21884546 7.21855598 7.21807340 7.21768051 7.21749113 7.21749113 7.21768051 7.21807340 7.21855598 7.21884546 7.21916637 7.21965561 7.22047228 7.22156776 7.22156776 7.22156776 7.22156776 7.22156776 7.22156776 7.22156776 7.22156776 7.22156776 7.22156776 7.22156776 7.22156776 7.22156776 7.22156776 7.22156776 7.22156776 7.22156776 7.22156776 7.22156776 7.22156776 7.22156776 7.22156776 7.21993705 7.21902086 7.21810334 7.21727594 7.21665797 7.21621006 7.21585272 7.21551322 7.21524538 7.21510550 7.21510550 7.21524538 7.21551322 7.21585272 7.21621006 7.21665797 7.21727594 7.21810334 7.21902086 7.21993705 7.22156776 7.22156776 7.22156776 7.22156776 7.22156776 7.22156776 7.22156776 7.22156776 7.22156776 7.22156776 7.22156776 7.22156776 7.22156776 7.22156776 7.22156776 7.22156776 7.22156776 7.22156776 7.22004257 7.21893127 7.21761726 7.21653988 7.21562367 7.21485661 7.21426749 7.21383524 7.21351288 7.21326100 7.21308043 7.21298681 7.21298681 7.21308043 7.21326100 7.21351288 7.21383524 7.21426749 7.21485661 7.21562367 7.21653988 7.21761726 7.21893127 7.22004257 7.22156776 7.22156776 7.22156776 7.22156776 7.22156776 7.22156776 7.22156776 7.22156776 7.22156776 7.22156776 7.22156776 7.22156776 7.22156776 7.22156776 7.22156776 7.21963096 7.21796337 7.21653789 7.21524870 7.21418731 7.21334650 7.21270251 7.21223706 7.21191692 7.21170015 7.21155180 7.21145550 7.21140766 7.21140766 7.21145550 7.21155180 7.21170015 7.21191692 7.21223706 7.21270251 7.21334650 7.21418731 7.21524870 7.21653789 7.21796337 7.21963096 7.22156776 7.22156776 7.22156776 7.22156776 7.22156776 7.22156776 7.22156776 7.22156776 7.22156776 7.22156776 7.22156776 7.22156776 7.22062308 7.21924416 7.21744894 7.21574854 7.21427621 7.21305930 7.21212367 7.21145236 7.21100514 7.21073556 7.21059357 7.21053115 7.21050993 7.21050566 7.21050603 7.21050603 7.21050566 7.21050993 7.21053115 7.21059357 7.21073556 7.21100514 7.21145236 7.21212367 7.21305930 7.21427621 7.21574854 7.21744894 7.21924416 7.22062308 7.22156776 7.22156776 7.22156776 7.22156776 7.22156776 7.22156776 7.22156776 7.22156776 7.22156776 7.22156776 7.21927711 7.21728137 7.21536593 7.21365938 7.21225649 7.21119434 7.21047029 7.21004395 7.20985252 7.20982682 7.20990096 7.21001870 7.21013750 7.21022943 7.21027880 7.21027880 7.21022943 7.21013750 7.21001870 7.20990096 7.20982682 7.20985252 7.21004395 7.21047029 7.21119434 7.21225649 7.21365938 7.21536593 7.21728137 7.21927711 7.22156776 7.22156776 7.22156776 7.22156776 7.22156776 7.22156776 7.22156776 7.22156776 7.22156776 7.21974856 7.21758600 7.21545094 7.21349077 7.21183849 7.21057806 7.20973315 7.20927502 7.20913615 7.20922922 7.20946497 7.20976429 7.21006440 7.21032051 7.21050407 7.21059927 7.21059927 7.21050407 7.21032051 7.21006440 7.20976429 7.20946497 7.20922922 7.20913615 7.20927502 7.20973315 7.21057806 7.21183849 7.21349077 7.21545094 7.21758600 7.21974856 7.22156776 7.22156776 7.22156776 7.22156776 7.22156776 7.22156776 7.22156776 7.22027261 7.21831125 7.21607342 7.21387217 7.21192099 7.21036718 7.20928729 7.20868620 7.20850887 7.20866076 7.20903140 7.20951465 7.21002155 7.21048559 7.21086213 7.21112442 7.21125844 7.21125844 7.21112442 7.21086213 7.21048559 7.21002155 7.20951465 7.20903140 7.20866076 7.20850887 7.20868620 7.20928729 7.21036718 7.21192099 7.21387217 7.21607342 7.21831125 7.22027261 7.22156776 7.22156776 7.22156776 7.22156776 7.22156776 7.22156776 7.21953970 7.21726695 7.21489008 7.21263895 7.21072008 7.20927827 7.20837890 7.20800738 7.20808450 7.20849206 7.20910033 7.20979026 7.21046651 7.21106132 7.21153195 7.21185466 7.21201813 7.21201813 7.21185466 7.21153195 7.21106132 7.21046651 7.20979026 7.20910033 7.20849206 7.20808450 7.20800738 7.20837890 7.20927827 7.21072008 7.21263895 7.21489008 7.21726695 7.21953970 7.22156776 7.22156776 7.22156776 7.22156776 7.22156776 7.22156776 7.21906966 7.21656811 7.21408201 7.21179958 7.20991598 7.20856939 7.20781431 7.20762012 7.20788905 7.20848537 7.20926570 7.21010247 7.21089677 7.21158109 7.21211500 7.21247776 7.21266055 7.21266055 7.21247776 7.21211500 7.21158109 7.21089677 7.21010247 7.20926570 7.20848537 7.20788905 7.20762012 7.20781431 7.20856939 7.20991598 7.21179958 7.21408201 7.21656811 7.21906966 7.22156776 7.22156776 7.22156776 7.22156776 7.22156776 7.22082422 7.21868833 7.21618707 7.21366714 7.21137494 7.20951446 7.20822234 7.20754714 7.20744931 7.20782102 7.20851724 7.20938751 7.21030012 7.21115465 7.21188405 7.21244947 7.21283196 7.21302420 7.21302420 7.21283196 7.21244947 7.21188405 7.21115465 7.21030012 7.20938751 7.20851724 7.20782102 7.20744931 7.20754714 7.20822234 7.20951446 7.21137494 7.21366714 7.21618707 7.21868833 7.22082422 7.22156776 7.22156776 7.22156776 7.22156776 7.22082422 7.21868833 7.21618707 7.21366714 7.21137494 7.20951446 7.20822234 7.20754714 7.20744931 7.20782102 7.20851724 7.20938751 7.21030012 7.21115465 7.21188405 7.21244947 7.21283196 7.21302420 7.21302420 7.21283196 7.21244947 7.21188405 7.21115465 7.21030012 7.20938751 7.20851724 7.20782102 7.20744931 7.20754714 7.20822234 7.20951446 7.21137494 7.21366714 7.21618707 7.21868833 7.22082422 7.22156776 7.22156776 7.22156776 7.22156776 7.22156776 7.21906966 7.21656811 7.21408201 7.21179958 7.20991598 7.20856939 7.20781431 7.20762012 7.20788905 7.20848537 7.20926570 7.21010247 7.21089677 7.21158109 7.21211500 7.21247776 7.21266055 7.21266055 7.21247776 7.21211500 7.21158109 7.21089677 7.21010247 7.20926570 7.20848537 7.20788905 7.20762012 7.20781431 7.20856939 7.20991598 7.21179958 7.21408201 7.21656811 7.21906966 7.22156776 7.22156776 7.22156776 7.22156776 7.22156776 7.22156776 7.21953970 7.21726695 7.21489008 7.21263895 7.21072008 7.20927827 7.20837890 7.20800738 7.20808450 7.20849206 7.20910033 7.20979026 7.21046651 7.21106132 7.21153195 7.21185466 7.21201813 7.21201813 7.21185466 7.21153195 7.21106132 7.21046651 7.20979026 7.20910033 7.20849206 7.20808450 7.20800738 7.20837890 7.20927827 7.21072008 7.21263895 7.21489008 7.21726695 7.21953970 7.22156776 7.22156776 7.22156776 7.22156776 7.22156776 7.22156776 7.22027261 7.21831125 7.21607342 7.21387217 7.21192099 7.21036718 7.20928729 7.20868620 7.20850887 7.20866076 7.20903140 7.20951465 7.21002155 7.21048559 7.21086213 7.21112442 7.21125844 7.21125844 7.21112442 7.21086213 7.21048559 7.21002155 7.20951465 7.20903140 7.20866076 7.20850887 7.20868620 7.20928729 7.21036718 7.21192099 7.21387217 7.21607342 7.21831125 7.22027261 7.22156776 7.22156776 7.22156776 7.22156776 7.22156776 7.22156776 7.22156776 7.21974856 7.21758600 7.21545094 7.21349077 7.21183849 7.21057806 7.20973315 7.20927502 7.20913615 7.20922922 7.20946497 7.20976429 7.21006440 7.21032051 7.21050407 7.21059927 7.21059927 7.21050407 7.21032051 7.21006440 7.20976429 7.20946497 7.20922922 7.20913615 7.20927502 7.20973315 7.21057806 7.21183849 7.21349077 7.21545094 7.21758600 7.21974856 7.22156776 7.22156776 7.22156776 7.22156776 7.22156776 7.22156776 7.22156776 7.22156776 7.22156776 7.21927711 7.21728137 7.21536593 7.21365938 7.21225649 7.21119434 7.21047029 7.21004395 7.20985252 7.20982682 7.20990096 7.21001870 7.21013750 7.21022943 7.21027880 7.21027880 7.21022943 7.21013750 7.21001870 7.20990096 7.20982682 7.20985252 7.21004395 7.21047029 7.21119434 7.21225649 7.21365938 7.21536593 7.21728137 7.21927711 7.22156776 7.22156776 7.22156776 7.22156776 7.22156776 7.22156776 7.22156776 7.22156776 7.22156776 7.22156776 7.22062308 7.21924416 7.21744894 7.21574854 7.21427621 7.21305930 7.21212367 7.21145236 7.21100514 7.21073556 7.21059357 7.21053115 7.21050993 7.21050566 7.21050603 7.21050603 7.21050566 7.21050993 7.21053115 7.21059357 7.21073556 7.21100514 7.21145236 7.21212367 7.21305930 7.21427621 7.21574854 7.21744894 7.21924416 7.22062308 7.22156776 7.22156776 7.22156776 7.22156776 7.22156776 7.22156776 7.22156776 7.22156776 7.22156776 7.22156776 7.22156776 7.22156776 7.21963096 7.21796337 7.21653789 7.21524870 7.21418731 7.21334650 7.21270251 7.21223706 7.21191692 7.21170015 7.21155180 7.21145550 7.21140766 7.21140766 7.21145550 7.21155180 7.21170015 7.21191692 7.21223706 7.21270251 7.21334650 7.21418731 7.21524870 7.21653789 7.21796337 7.21963096 7.22156776 7.22156776 7.22156776 7.22156776 7.22156776 7.22156776 7.22156776 7.22156776 7.22156776 7.22156776 7.22156776 7.22156776 7.22156776 7.22156776 7.22156776 7.22004257 7.21893127 7.21761726 7.21653988 7.21562367 7.21485661 7.21426749 7.21383524 7.21351288 7.21326100 7.21308043 7.21298681 7.21298681 7.21308043 7.21326100 7.21351288 7.21383524 7.21426749 7.21485661 7.21562367 7.21653988 7.21761726 7.21893127 7.22004257 7.22156776 7.22156776 7.22156776 7.22156776 7.22156776 7.22156776 7.22156776 7.22156776 7.22156776 7.22156776 7.22156776 7.22156776 7.22156776 7.22156776 7.22156776 7.22156776 7.22156776 7.22156776 7.21993705 7.21902086 7.21810334 7.21727594 7.21665797 7.21621006 7.21585272 7.21551322 7.21524538 7.21510550 7.21510550 7.21524538 7.21551322 7.21585272 7.21621006 7.21665797 7.21727594 7.21810334 7.21902086 7.21993705 7.22156776 7.22156776 7.22156776 7.22156776 7.22156776 7.22156776 7.22156776 7.22156776 7.22156776 7.22156776 7.22156776 7.22156776 7.22156776 7.22156776 7.22156776 7.22156776 7.22156776 7.22156776 7.22156776 7.22156776 7.22156776 7.22156776 7.22047228 7.21965561 7.21916637 7.21884546 7.21855598 7.21807340 7.21768051 7.21749113 7.21749113 7.21768051 7.21807340 7.21855598 7.21884546 7.21916637 7.21965561 7.22047228 7.22156776 7.22156776 7.22156776 7.22156776 7.22156776 7.22156776 7.22156776 7.22156776 7.22156776 7.22156776 7.22156776 7.22156776 7.22156776 7.22156776 7.22156776 7.22156776 7.22156776 7.22156776 7.22156776 7.22156776 7.22156776 7.22156776 7.22156776 7.22156776 7.22156776 7.22156776 7.22156776 7.22156776 7.22156776 7.22053086 7.21997005 7.21976437 7.21976437 7.21997005 7.22053086 7.22156776 7.22156776 7.22156776 7.22156776 7.22156776 7.22156776 7.22156776 7.22156776 7.22156776 7.22156776 7.22156776 7.22156776 7.22156776 7.22156776 7.22156776 7.22156776 7.22156776 7.22156776 7.22156776 7.22156776 7.22156776 7.22156776 7.22156776 7.22156776 7.22156776 7.22156776 7.22156776 7.22156776 7.22156776 7.22156776 7.22156776 7.22156776 7.22156776 7.22156776 7.22156776 7.22156776 7.22156776 7.22156776 7.22156776 7.22156776 7.22156776 7.22156776 7.22156776 7.22156776 7.22156776 7.22156776 7.22156776 7.22156776 7.22156776 7.22156776 7.22156776 7.22156776 7.22156776 7.22156776 7.22156776 7.22156776 7.22156776 7.22156776 7.22156776 7.22156776 7.22156776 7.22156776 7.22156776 7.22156776 7.22156776 7.22156776 7.22156776 7.22156776 7.22156776 7.22156776 7.22156776 7.22156776 7.22156776 7.22156776 7.22156776 7.22156776 7.22156776 7.22156776 7.22156776 7.22156776 7.22156776 7.22156776 7.22156776 7.22156776 7.22156776 7.22156776 7.22156776 7.22156776 7.22156776 7.22156776 7.22156776 7.22156776 7.22156776 7.22156776 7.22156776 7.22156776 7.22156776 7.22156776 7.22156776 7.22156776 7.22156776 7.22156776 7.22156776 7.22156776 7.22156776 7.22156776 7.22156776 7.22156776 7.22156776 7.22156776 7.22156776 7.22156776 7.22156776 7.22156776 7.22156776 7.22156776 7.22156776 7.22156776 7.22156776 7.22156776 7.22156776 7.22156776 7.22156776 7.22156776 7.22156776 7.22156776 7.22156776 7.22156776 7.22156776 7.22156776 7.22156776 7.22156776 7.22156776 7.22156776 7.22156776 7.22156776 7.22156776 7.22156776 7.22156776 7.22156776 7.22156776 7.22156776 7.22156776 7.22156776 7.22156776 7.22156776 7.22156776 7.22156776 7.22156776 7.22156776 7.22156776 7.22156776 7.22156776 7.22156776 7.22156776 7.22156776 7.22156776 7.22156776 7.22156776 7.22156776 7.22156776 7.22156776 7.22156776 7.22156776 7.22156776 7.22156776 7.22156776 7.22156776 7.22156776 7.22156776 7.22156776 7.22156776 7.22156776 7.22156776 7.22156776 7.22156776 7.22156776 7.22156776 7.22156776 7.22156776 7.22156776 7.22156776 7.22156776 7.22156776 7.22156776 7.22156776 7.22156776 7.22156776 7.22156776 7.22156776 7.22156776 7.22156776 7.22156776 7.22156776 7.22156776 7.22156776 7.22156776 7.22156776 7.22156776 7.22156776 7.22156776 7.22156776 7.22156776 7.22156776 7.22156776 7.22156776 7.22156776 7.22156776 7.22156776 7.22156776 7.22156776 7.22156776 7.22156776 7.22156776 7.22156776 7.22156776 7.22156776 7.22156776 7.22156776 7.22156776 7.22156776 7.22156776 7.22156776 7.22156776 7.22156776 7.22156776 7.22156776 7.22156776 7.22156776 7.22156776 7.22156776 7.22156776 7.22156776 7.22156776 7.22156776 7.22156776 7.22156776 7.22156776 7.22156776 7.22156776 7.22156776 7.22156776 7.22156776 7.22156776 7.22156776 7.22156776 7.22156776 7.22156776 7.22156776 7.22156776 7.22156776 7.22156776 7.22156776 7.22156776 7.22156776 7.22156776 7.22156776 7.22156776 7.22156776 7.22156776 7.22156776 7.22156776 7.22156776 7.22156776 7.22156776 7.22156776 7.22156776 7.22156776 7.22156776 7.22156776 7.22156776 7.22156776 7.22156776 7.22156776 7.22156776 7.22156776 7.22156776 7.22156776 7.22156776 7.22156776 7.22156776 7.22156776 7.22156776 7.22156776 7.22156776 7.22156776 7.22156776 7.22156776 7.22156776 7.22156776 7.22156776 7.22156776 7.22156776 7.22156776 7.22156776 7.22156776 7.22156776 7.22156776 7.22156776 7.22156776 7.22156776 7.22156776 7.22156776 7.22156776 7.22156776 7.22156776 7.22156776 7.22156776 7.22156776 7.22156776 7.22156776 7.22156776 7.22156776 7.22156776 7.22156776 7.22156776 7.22156776 7.22156776 7.22156776 7.22156776 7.22156776 7.22156776 7.22156776 7.22156776 7.22156776 7.22156776 7.22156776 7.22156776 7.22156776 7.22156776 7.22156776 7.22156776 7.22156776 7.22156776 7.22156776 7.22156776 7.22156776 