# vtk DataFile Version 3.0
VTK - Matlab export
ASCII
DATASET STRUCTURED_POINTS
DIMENSIONS 40 40 1
SPACING 1 1 1
ORIGIN 0 0 0
POINT_DATA 1600
SCALARS lambda-2 float 1
LOOKUP_TABLE default
7.22156776 7.22156776 7.22156776 7.22156776 7.22156776 7.22156776 7.22156776 7.22156776 7.22156776 7.22156776 7.22156776 7.22156776 7.22156776 7.22156776 7.22156776 7.22156776 7.22156776 7.22156776 7.22156776 7.22156776 7.22156776 7.22156776 7.22156776 7.22156776 7.22156776 7.22156776 7.22156776 7.22156776 7.22156776 7.22156776 7.22156776 7.22156776 7.22156776 7.22156776 7.22156776 7.22156776 7.22156776 7.22156776 7.22156776 7.22156776 7.22156776 7.22156776 7.22156776 7.22156776 7.22156776 7.22156776 7.22156776 7.22156776 7.22156776 7.22156776 7.22156776 7.22156776 7.22156776 7.22156776 7.22156776 7.22156776 7.22156776 7.22156776 7.22156776 7.22156776 7.22156776 7.22156776 7.22156776 7.22156776 7.22156776 7.22156776 7.22156776 7.22156776 7.22156776 7.22156776 7.22156776 7.22156776 7.22156776 7.22156776 7.22156776 7.22156776 7.22156776 7.22156776 7.22156776 7.22156776 7.22156776 7.22156776 7.22156776 7.22156776 7.22156776 7.22156776 7.22156776 7.22156776 7.22156776 7.22156776 7.22156776 7.22156776 7.22156776 7.22156776 7.22156776 7.22156776 7.22156776 7.22156776 7.22156776 7.22156776 7.22156776 7.22156776 7.22156776 7.22156776 7.22156776 7.22156776 7.22156776 7.22156776 7.22156776 7.22156776 7.22156776 7.22156776 7.22156776 7.22156776 7.22156776 7.22156776 7.22156776 7.22156776 7.22156776 7.22156776 7.22156776 7.22156776 7.22156776 7.22156776 7.22156776 7.22156776 7.22156776 7.22156776 7.22156776 7.22156776 7.22156776 7.22156776 7.22156776 7.22156776 7.22156776 7.22156776 7.22156776 7.22156776 7.22156776 7.22156776 7.22156776 7.22156776 7.22156776 7.22156776 7.22156776 7.22156776 7.22156776 7.22156776 7.22156776 7.22156776 7.22156776 7.22156776 7.22156776 7.22156776 7.22156776 7.22156776 7.22156776 7.22156776 7.22156776 7.22156776 7.22156776 7.22156776 7.22156776 7.22156776 7.22156776 7.22156776 7.22156776 7.22156776 7.22156776 7.22156776 7.22156776 7.22156776 7.22156776 7.22156776 7.22156776 7.22156776 7.22156776 7.22156776 7.22156776 7.22156776 7.22156776 7.22156776 7.22156776 7.22156776 7.22156776 7.22156776 7.22156776 7.22156776 7.22156776 7.22156776 7.22156776 7.22156776 7.22156776 7.22156776 7.22156776 7.22156776 7.22156776 7.22156776 7.22156776 7.22156776 7.22156776 7.22156776 7.22156776 7.22156776 7.22156776 7.22156776 7.22156776 7.22156776 7.22156776 7.22156776 7.22156776 7.22156776 7.22156776 7.22156776 7.22156776 7.22156776 7.22156776 7.22156776 7.22156776 7.22156776 7.22156776 7.22156776 7.22156776 7.22156776 7.22156776 7.22156776 7.22156776 7.22156776 7.22156776 7.22156776 7.22156776 7.22156776 7.22156776 7.22156776 7.22156776 7.22156776 7.22156776 7.22156776 7.22156776 7.22156776 7.22156776 7.22156776 7.22156776 7.22156776 7.22156776 7.22156776 7.22156776 7.22156776 7.22156776 7.22156776 7.22156776 7.22156776 7.22156776 7.22156776 7.22156776 7.22156776 7.22156776 7.22156776 7.22156776 7.22156776 7.22156776 7.22156776 7.22156776 7.22156776 7.22156776 7.22156776 7.22156776 7.22156776 7.22156776 7.22156776 7.22156776 7.22156776 7.22156776 7.22156776 7.22156776 7.22156776 7.22156776 7.22156776 7.22156776 7.22156776 7.22156776 7.22156776 7.22156776 7.22156776 7.22156776 7.22156776 7.22156776 7.22156776 7.22156776 7.22156776 7.22156776 7.22156776 7.22156776 7.22156776 7.22156776 7.22156776 7.22156776 7.22156776 7.22156776 7.22156776 7.22156776 7.22156776 7.22156776 7.22156776 7.22156776 7.22156776 7.22156776 7.22156776 7.22156776 7.22156776 7.22156776 7.22156776 7.22156776 7.22156776 7.22156776 7.22156776 7.22156776 7.22156776 7.22156776 7.22156776 7.22156776 7.22156776 7.22156776 7.22156776 7.22156776 7.22156776 7.22156776 7.22156776 7.22156776 7.22156776 7.22156776 7.22156776 7.22156776 7.22156776 7.22156776 7.22156776 7.22156776 7.21762946 7.21535425 7.21447398 7.21447398 7.21535425 7.21762946 7.22156776 7.22156776 7.22156776 7.22156776 7.22156776 7.22156776 7.22156776 7.22156776 7.22156776 7.22156776 7.22156776 7.22156776 7.22156776 7.22156776 7.22156776 7.22156776 7.22156776 7.22156776 7.22156776 7.22156776 7.22156776 7.22156776 7.22156776 7.22156776 7.22156776 7.22156776 7.22156776 7.22156776 7.22156776 7.21741943 7.21435108 7.21266327 7.21170991 7.21084754 7.20909351 7.20754411 7.20676300 7.20676300 7.20754411 7.20909351 7.21084754 7.21170991 7.21266327 7.21435108 7.21741943 7.22156776 7.22156776 7.22156776 7.22156776 7.22156776 7.22156776 7.22156776 7.22156776 7.22156776 7.22156776 7.22156776 7.22156776 7.22156776 7.22156776 7.22156776 7.22156776 7.22156776 7.22156776 7.22156776 7.22156776 7.22156776 7.22156776 7.21545733 7.21220172 7.20910173 7.20649069 7.20484005 7.20390968 7.20323639 7.20240886 7.20162617 7.20118343 7.20118343 7.20162617 7.20240886 7.20323639 7.20390968 7.20484005 7.20649069 7.20910173 7.21220172 7.21545733 7.22156776 7.22156776 7.22156776 7.22156776 7.22156776 7.22156776 7.22156776 7.22156776 7.22156776 7.22156776 7.22156776 7.22156776 7.22156776 7.22156776 7.22156776 7.22156776 7.22156776 7.22156776 7.21588789 7.21201056 7.20764429 7.20455727 7.20237408 7.20091429 7.20018321 7.19997079 7.19995323 7.19987722 7.19973238 7.19962636 7.19962636 7.19973238 7.19987722 7.19995323 7.19997079 7.20018321 7.20091429 7.20237408 7.20455727 7.20764429 7.21201056 7.21588789 7.22156776 7.22156776 7.22156776 7.22156776 7.22156776 7.22156776 7.22156776 7.22156776 7.22156776 7.22156776 7.22156776 7.22156776 7.22156776 7.22156776 7.22156776 7.21447045 7.20880406 7.20468697 7.20165070 7.19990647 7.19919015 7.19917738 7.19963528 7.20032594 7.20101445 7.20153687 7.20185107 7.20199127 7.20199127 7.20185107 7.20153687 7.20101445 7.20032594 7.19963528 7.19917738 7.19919015 7.19990647 7.20165070 7.20468697 7.20880406 7.21447045 7.22156776 7.22156776 7.22156776 7.22156776 7.22156776 7.22156776 7.22156776 7.22156776 7.22156776 7.22156776 7.22156776 7.22156776 7.21789017 7.21293399 7.20713698 7.20266592 7.19995903 7.19879384 7.19887318 7.19976744 7.20107242 7.20250030 7.20385159 7.20498853 7.20583522 7.20637790 7.20663870 7.20663870 7.20637790 7.20583522 7.20498853 7.20385159 7.20250030 7.20107242 7.19976744 7.19887318 7.19879384 7.19995903 7.20266592 7.20713698 7.21293399 7.21789017 7.22156776 7.22156776 7.22156776 7.22156776 7.22156776 7.22156776 7.22156776 7.22156776 7.22156776 7.22156776 7.21279786 7.20625377 7.20146959 7.19883508 7.19822093 7.19910483 7.20088847 7.20303921 7.20517694 7.20708746 7.20867419 7.20990672 7.21079110 7.21135373 7.21162529 7.21162529 7.21135373 7.21079110 7.20990672 7.20867419 7.20708746 7.20517694 7.20303921 7.20088847 7.19910483 7.19822093 7.19883508 7.20146959 7.20625377 7.21279786 7.22156776 7.22156776 7.22156776 7.22156776 7.22156776 7.22156776 7.22156776 7.22156776 7.22156776 7.21423660 7.20663194 7.20097414 7.19795882 7.19753141 7.19905198 7.20166365 7.20462034 7.20742288 7.20981870 7.21173478 7.21319575 7.21426218 7.21499784 7.21545643 7.21567597 7.21567597 7.21545643 7.21499784 7.21426218 7.21319575 7.21173478 7.20981870 7.20742288 7.20462034 7.20166365 7.19905198 7.19753141 7.19795882 7.20097414 7.20663194 7.21423660 7.22156776 7.22156776 7.22156776 7.22156776 7.22156776 7.22156776 7.22156776 7.21600928 7.20845702 7.20164318 7.19747417 7.19649944 7.19818160 7.20143340 7.20517968 7.20868208 7.21158621 7.21381748 7.21544945 7.21660462 7.21739992 7.21792623 7.21824601 7.21839711 7.21839711 7.21824601 7.21792623 7.21739992 7.21660462 7.21544945 7.21381748 7.21158621 7.20868208 7.20517968 7.20143340 7.19818160 7.19649944 7.19747417 7.20164318 7.20845702 7.21600928 7.22156776 7.22156776 7.22156776 7.22156776 7.22156776 7.22156776 7.21289354 7.20453106 7.19832819 7.19563231 7.19648292 7.19982460 7.20422728 7.20853255 7.21211284 7.21479896 7.21668397 7.21795360 7.21878924 7.21933090 7.21967347 7.21987546 7.21996935 7.21996935 7.21987546 7.21967347 7.21933090 7.21878924 7.21795360 7.21668397 7.21479896 7.21211284 7.20853255 7.20422728 7.19982460 7.19648292 7.19563231 7.19832819 7.20453106 7.21289354 7.22156776 7.22156776 7.22156776 7.22156776 7.22156776 7.22156776 7.21097000 7.20212850 7.19646058 7.19491848 7.19708604 7.20150453 7.20653338 7.21101846 7.21446500 7.21686118 7.21841996 7.21939439 7.21999218 7.22035651 7.22057595 7.22070105 7.22075810 7.22075810 7.22070105 7.22057595 7.22035651 7.21999218 7.21939439 7.21841996 7.21686118 7.21446500 7.21101846 7.20653338 7.20150453 7.19708604 7.19491848 7.19646058 7.20212850 7.21097000 7.22156776 7.22156776 7.22156776 7.22156776 7.22156776 7.21828692 7.20936122 7.20086385 7.19563027 7.19473929 7.19758876 7.20252121 7.20780552 7.21231273 7.21563324 7.21784265 7.21921396 7.22002970 7.22050569 7.22078253 7.22094288 7.22103173 7.22107159 7.22107159 7.22103173 7.22094288 7.22078253 7.22050569 7.22002970 7.21921396 7.21784265 7.21563324 7.21231273 7.20780552 7.20252121 7.19758876 7.19473929 7.19563027 7.20086385 7.20936122 7.21828692 7.22156776 7.22156776 7.22156776 7.22156776 7.21828692 7.20936122 7.20086385 7.19563027 7.19473929 7.19758876 7.20252121 7.20780552 7.21231273 7.21563324 7.21784265 7.21921396 7.22002970 7.22050569 7.22078253 7.22094288 7.22103173 7.22107159 7.22107159 7.22103173 7.22094288 7.22078253 7.22050569 7.22002970 7.21921396 7.21784265 7.21563324 7.21231273 7.20780552 7.20252121 7.19758876 7.19473929 7.19563027 7.20086385 7.20936122 7.21828692 7.22156776 7.22156776 7.22156776 7.22156776 7.22156776 7.21097000 7.20212850 7.19646058 7.19491848 7.19708604 7.20150453 7.20653338 7.21101846 7.21446500 7.21686118 7.21841996 7.21939439 7.21999218 7.22035651 7.22057595 7.22070105 7.22075810 7.22075810 7.22070105 7.22057595 7.22035651 7.21999218 7.21939439 7.21841996 7.21686118 7.21446500 7.21101846 7.20653338 7.20150453 7.19708604 7.19491848 7.19646058 7.20212850 7.21097000 7.22156776 7.22156776 7.22156776 7.22156776 7.22156776 7.22156776 7.21289354 7.20453106 7.19832819 7.19563231 7.19648292 7.19982460 7.20422728 7.20853255 7.21211284 7.21479896 7.21668397 7.21795360 7.21878924 7.21933090 7.21967347 7.21987546 7.21996935 7.21996935 7.21987546 7.21967347 7.21933090 7.21878924 7.21795360 7.21668397 7.21479896 7.21211284 7.20853255 7.20422728 7.19982460 7.19648292 7.19563231 7.19832819 7.20453106 7.21289354 7.22156776 7.22156776 7.22156776 7.22156776 7.22156776 7.22156776 7.21600928 7.20845702 7.20164318 7.19747417 7.19649944 7.19818160 7.20143340 7.20517968 7.20868208 7.21158621 7.21381748 7.21544945 7.21660462 7.21739992 7.21792623 7.21824601 7.21839711 7.21839711 7.21824601 7.21792623 7.21739992 7.21660462 7.21544945 7.21381748 7.21158621 7.20868208 7.20517968 7.20143340 7.19818160 7.19649944 7.19747417 7.20164318 7.20845702 7.21600928 7.22156776 7.22156776 7.22156776 7.22156776 7.22156776 7.22156776 7.22156776 7.21423660 7.20663194 7.20097414 7.19795882 7.19753141 7.19905198 7.20166365 7.20462034 7.20742288 7.20981870 7.21173478 7.21319575 7.21426218 7.21499784 7.21545643 7.21567597 7.21567597 7.21545643 7.21499784 7.21426218 7.21319575 7.21173478 7.20981870 7.20742288 7.20462034 7.20166365 7.19905198 7.19753141 7.19795882 7.20097414 7.20663194 7.21423660 7.22156776 7.22156776 7.22156776 7.22156776 7.22156776 7.22156776 7.22156776 7.22156776 7.22156776 7.21279786 7.20625377 7.20146959 7.19883508 7.19822093 7.19910483 7.20088847 7.20303921 7.20517694 7.20708746 7.20867419 7.20990672 7.21079110 7.21135373 7.21162529 7.21162529 7.21135373 7.21079110 7.20990672 7.20867419 7.20708746 7.20517694 7.20303921 7.20088847 7.19910483 7.19822093 7.19883508 7.20146959 7.20625377 7.21279786 7.22156776 7.22156776 7.22156776 7.22156776 7.22156776 7.22156776 7.22156776 7.22156776 7.22156776 7.22156776 7.21789017 7.21293399 7.20713698 7.20266592 7.19995903 7.19879384 7.19887318 7.19976744 7.20107242 7.20250030 7.20385159 7.20498853 7.20583522 7.20637790 7.20663870 7.20663870 7.20637790 7.20583522 7.20498853 7.20385159 7.20250030 7.20107242 7.19976744 7.19887318 7.19879384 7.19995903 7.20266592 7.20713698 7.21293399 7.21789017 7.22156776 7.22156776 7.22156776 7.22156776 7.22156776 7.22156776 7.22156776 7.22156776 7.22156776 7.22156776 7.22156776 7.22156776 7.21447045 7.20880406 7.20468697 7.20165070 7.19990647 7.19919015 7.19917738 7.19963528 7.20032594 7.20101445 7.20153687 7.20185107 7.20199127 7.20199127 7.20185107 7.20153687 7.20101445 7.20032594 7.19963528 7.19917738 7.19919015 7.19990647 7.20165070 7.20468697 7.20880406 7.21447045 7.22156776 7.22156776 7.22156776 7.22156776 7.22156776 7.22156776 7.22156776 7.22156776 7.22156776 7.22156776 7.22156776 7.22156776 7.22156776 7.22156776 7.22156776 7.21588789 7.21201056 7.20764429 7.20455727 7.20237408 7.20091429 7.20018321 7.19997079 7.19995323 7.19987722 7.19973238 7.19962636 7.19962636 7.19973238 7.19987722 7.19995323 7.19997079 7.20018321 7.20091429 7.20237408 7.20455727 7.20764429 7.21201056 7.21588789 7.22156776 7.22156776 7.22156776 7.22156776 7.22156776 7.22156776 7.22156776 7.22156776 7.22156776 7.22156776 7.22156776 7.22156776 7.22156776 7.22156776 7.22156776 7.22156776 7.22156776 7.22156776 7.21545733 7.21220172 7.20910173 7.20649069 7.20484005 7.20390968 7.20323639 7.20240886 7.20162617 7.20118343 7.20118343 7.20162617 7.20240886 7.20323639 7.20390968 7.20484005 7.20649069 7.20910173 7.21220172 7.21545733 7.22156776 7.22156776 7.22156776 7.22156776 7.22156776 7.22156776 7.22156776 7.22156776 7.22156776 7.22156776 7.22156776 7.22156776 7.22156776 7.22156776 7.22156776 7.22156776 7.22156776 7.22156776 7.22156776 7.22156776 7.22156776 7.22156776 7.21741943 7.21435108 7.21266327 7.21170991 7.21084754 7.20909351 7.20754411 7.20676300 7.20676300 7.20754411 7.20909351 7.21084754 7.21170991 7.21266327 7.21435108 7.21741943 7.22156776 7.22156776 7.22156776 7.22156776 7.22156776 7.22156776 7.22156776 7.22156776 7.22156776 7.22156776 7.22156776 7.22156776 7.22156776 7.22156776 7.22156776 7.22156776 7.22156776 7.22156776 7.22156776 7.22156776 7.22156776 7.22156776 7.22156776 7.22156776 7.22156776 7.22156776 7.22156776 7.22156776 7.22156776 7.21762946 7.21535425 7.21447398 7.21447398 7.21535425 7.21762946 7.22156776 7.22156776 7.22156776 7.22156776 7.22156776 7.22156776 7.22156776 7.22156776 7.22156776 7.22156776 7.22156776 7.22156776 7.22156776 7.22156776 7.22156776 7.22156776 7.22156776 7.22156776 7.22156776 7.22156776 7.22156776 7.22156776 7.22156776 7.22156776 7.22156776 7.22156776 7.22156776 7.22156776 7.22156776 7.22156776 7.22156776 7.22156776 7.22156776 7.22156776 7.22156776 7.22156776 7.22156776 7.22156776 7.22156776 7.22156776 7.22156776 7.22156776 7.22156776 7.22156776 7.22156776 7.22156776 7.22156776 7.22156776 7.22156776 7.22156776 7.22156776 7.22156776 7.22156776 7.22156776 7.22156776 7.22156776 7.22156776 7.22156776 7.22156776 7.22156776 7.22156776 7.22156776 7.22156776 7.22156776 7.22156776 7.22156776 7.22156776 7.22156776 7.22156776 7.22156776 7.22156776 7.22156776 7.22156776 7.22156776 7.22156776 7.22156776 7.22156776 7.22156776 7.22156776 7.22156776 7.22156776 7.22156776 7.22156776 7.22156776 7.22156776 7.22156776 7.22156776 7.22156776 7.22156776 7.22156776 7.22156776 7.22156776 7.22156776 7.22156776 7.22156776 7.22156776 7.22156776 7.22156776 7.22156776 7.22156776 7.22156776 7.22156776 7.22156776 7.22156776 7.22156776 7.22156776 7.22156776 7.22156776 7.22156776 7.22156776 7.22156776 7.22156776 7.22156776 7.22156776 7.22156776 7.22156776 7.22156776 7.22156776 7.22156776 7.22156776 7.22156776 7.22156776 7.22156776 7.22156776 7.22156776 7.22156776 7.22156776 7.22156776 7.22156776 7.22156776 7.22156776 7.22156776 7.22156776 7.22156776 7.22156776 7.22156776 7.22156776 7.22156776 7.22156776 7.22156776 7.22156776 7.22156776 7.22156776 7.22156776 7.22156776 7.22156776 7.22156776 7.22156776 7.22156776 7.22156776 7.22156776 7.22156776 7.22156776 7.22156776 7.22156776 7.22156776 7.22156776 7.22156776 7.22156776 7.22156776 7.22156776 7.22156776 7.22156776 7.22156776 7.22156776 7.22156776 7.22156776 7.22156776 7.22156776 7.22156776 7.22156776 7.22156776 7.22156776 7.22156776 7.22156776 7.22156776 7.22156776 7.22156776 7.22156776 7.22156776 7.22156776 7.22156776 7.22156776 7.22156776 7.22156776 7.22156776 7.22156776 7.22156776 7.22156776 7.22156776 7.22156776 7.22156776 7.22156776 7.22156776 7.22156776 7.22156776 7.22156776 7.22156776 7.22156776 7.22156776 7.22156776 7.22156776 7.22156776 7.22156776 7.22156776 7.22156776 7.22156776 7.22156776 7.22156776 7.22156776 7.22156776 7.22156776 7.22156776 7.22156776 7.22156776 7.22156776 7.22156776 7.22156776 7.22156776 7.22156776 7.22156776 7.22156776 7.22156776 7.22156776 7.22156776 7.22156776 7.22156776 7.22156776 7.22156776 7.22156776 7.22156776 7.22156776 7.22156776 7.22156776 7.22156776 7.22156776 7.22156776 7.22156776 7.22156776 7.22156776 7.22156776 7.22156776 7.22156776 7.22156776 7.22156776 7.22156776 7.22156776 7.22156776 7.22156776 7.22156776 7.22156776 7.22156776 7.22156776 7.22156776 7.22156776 7.22156776 7.22156776 7.22156776 7.22156776 7.22156776 7.22156776 7.22156776 7.22156776 7.22156776 7.22156776 7.22156776 7.22156776 7.22156776 7.22156776 7.22156776 7.22156776 7.22156776 7.22156776 7.22156776 7.22156776 7.22156776 7.22156776 7.22156776 7.22156776 7.22156776 7.22156776 7.22156776 7.22156776 7.22156776 7.22156776 7.22156776 7.22156776 7.22156776 7.22156776 7.22156776 7.22156776 7.22156776 7.22156776 7.22156776 7.22156776 7.22156776 7.22156776 7.22156776 7.22156776 7.22156776 7.22156776 7.22156776 7.22156776 7.22156776 7.22156776 7.22156776 7.22156776 7.22156776 7.22156776 7.22156776 7.22156776 7.22156776 7.22156776 7.22156776 7.22156776 7.22156776 7.22156776 7.22156776 7.22156776 7.22156776 7.22156776 7.22156776 7.22156776 7.22156776 7.22156776 7.22156776 7.22156776 7.22156776 7.22156776 7.22156776 7.22156776 7.22156776 7.22156776 7.22156776 7.22156776 7.22156776 7.22156776 