# vtk DataFile Version 3.0
VTK - Matlab export
ASCII
DATASET STRUCTURED_POINTS
DIMENSIONS 40 40 1
SPACING 1 1 1
ORIGIN 0 0 0
POINT_DATA 1600
SCALARS Proofstrength float 1
LOOKUP_TABLE default
142.25514280 142.25514280 142.25514280 142.25514280 142.25514280 142.25514280 142.25514280 142.25514280 142.25514280 142.25514280 142.25514280 142.25514280 142.25514280 142.25514280 142.25514280 142.25514280 142.25514280 142.25514280 142.25514280 142.25514280 142.25514280 142.25514280 142.25514280 142.25514280 142.25514280 142.25514280 142.25514280 142.25514280 142.25514280 142.25514280 142.25514280 142.25514280 142.25514280 142.25514280 142.25514280 142.25514280 142.25514280 142.25514280 142.25514280 142.25514280 142.25514280 142.25514280 142.25514280 142.25514280 142.25514280 142.25514280 142.25514280 142.25514280 142.25514280 142.25514280 142.25514280 142.25514280 142.25514280 142.25514280 142.25514280 142.25514280 142.25514280 142.25514280 142.25514280 142.25514280 142.25514280 142.25514280 142.25514280 142.25514280 142.25514280 142.25514280 142.25514280 142.25514280 142.25514280 142.25514280 142.25514280 142.25514280 142.25514280 142.25514280 142.25514280 142.25514280 142.25514280 142.25514280 142.25514280 142.25514280 142.25514280 142.25514280 142.25514280 142.25514280 142.25514280 142.25514280 142.25514280 142.25514280 142.25514280 142.25514280 142.25514280 142.25514280 142.25514280 142.25514280 142.25514280 142.25514280 142.25514280 142.25514280 142.25514280 142.25514280 142.25514280 142.25514280 142.25514280 142.25514280 142.25514280 142.25514280 142.25514280 142.25514280 142.25514280 142.25514280 142.25514280 142.25514280 142.25514280 142.25514280 142.25514280 142.25514280 142.25514280 142.25514280 142.25514280 142.25514280 142.25514280 142.25514280 142.25514280 142.25514280 142.25514280 142.25514280 142.25514280 142.25514280 142.25514280 142.25514280 142.25514280 142.25514280 142.25514280 142.25514280 142.25514280 142.25514280 142.25514280 142.25514280 142.25514280 142.25514280 142.25514280 142.25514280 142.25514280 142.25514280 142.25514280 142.25514280 142.25514280 142.25514280 142.25514280 142.25514280 142.25514280 142.25514280 142.25514280 142.25514280 142.25514280 142.25514280 142.25514280 142.25514280 142.25514280 142.25514280 142.25514280 142.25514280 142.25514280 142.25514280 142.25514280 142.25514280 142.25514280 142.25514280 142.25514280 142.25514280 142.25514280 142.25514280 142.25514280 142.25514280 142.25514280 142.25514280 142.25514280 142.25514280 142.25514280 142.25514280 142.25514280 142.25514280 142.25514280 142.25514280 142.25514280 142.25514280 142.25514280 142.25514280 142.25514280 142.25514280 142.25514280 142.25514280 142.25514280 142.25514280 142.25514280 142.25514280 142.25514280 142.25514280 142.25514280 142.25514280 142.25514280 142.25514280 142.25514280 142.25514280 142.25514280 142.25514280 142.25514280 142.25514280 142.25514280 142.25514280 142.25514280 142.25514280 142.25514280 142.25514280 142.25514280 142.25514280 142.25514280 142.25514280 142.25514280 142.25514280 142.25514280 142.25514280 142.25514280 142.25514280 142.25514280 142.25514280 142.25514280 142.25514280 142.25514280 142.25514280 142.25514280 142.25514280 142.25514280 142.25514280 142.25514280 142.25514280 142.25514280 142.25514280 142.25514280 142.25514280 142.25514280 142.25514280 142.25514280 142.25514280 142.25514280 142.25514280 142.25514280 142.25514280 142.25514280 142.25514280 142.25514280 142.25514280 142.25514280 142.25514280 142.25514280 142.25514280 142.25514280 142.25514280 142.25514280 142.25514280 142.25514280 142.25514280 142.25514280 142.25514280 142.25514280 142.25514280 142.25514280 142.25514280 142.25514280 142.25514280 142.25514280 142.25514280 142.25514280 142.25514280 142.25514280 142.25514280 142.25514280 142.25514280 142.25514280 142.25514280 142.25514280 142.25514280 142.25514280 142.25514280 142.25514280 142.25514280 142.25514280 142.25514280 142.25514280 142.25514280 142.25514280 142.25514280 142.25514280 142.25514280 142.25514280 142.25514280 142.25514280 142.25514280 142.25514280 142.25514280 142.25514280 142.25514280 142.25514280 142.25514280 142.25514280 142.25514280 142.25514280 142.25514280 142.25514280 142.25514280 142.25514280 142.25514280 142.25514280 142.25514280 142.25514280 142.25514280 142.25514280 142.25514280 142.25514280 142.25514280 142.25514280 142.25514280 142.25514280 142.25514280 142.25514280 142.25514280 142.25514280 142.25514280 142.25514280 142.25514280 142.25514280 142.25514280 142.25514280 142.25514280 142.25514280 142.25514280 142.25514280 142.26277080 142.26728336 142.26906528 142.26906528 142.26728336 142.26277080 142.25514280 142.25514280 142.25514280 142.25514280 142.25514280 142.25514280 142.25514280 142.25514280 142.25514280 142.25514280 142.25514280 142.25514280 142.25514280 142.25514280 142.25514280 142.25514280 142.25514280 142.25514280 142.25514280 142.25514280 142.25514280 142.25514280 142.25514280 142.25514280 142.25514280 142.25514280 142.25514280 142.25514280 142.25514280 142.26315719 142.26907804 142.27224718 142.27393544 142.27546979 142.27884114 142.28191288 142.28349072 142.28349072 142.28191288 142.27884114 142.27546979 142.27393544 142.27224718 142.26907804 142.26315719 142.25514280 142.25514280 142.25514280 142.25514280 142.25514280 142.25514280 142.25514280 142.25514280 142.25514280 142.25514280 142.25514280 142.25514280 142.25514280 142.25514280 142.25514280 142.25514280 142.25514280 142.25514280 142.25514280 142.25514280 142.25514280 142.25514280 142.26691883 142.27309014 142.27887659 142.28365248 142.28648623 142.28788590 142.28884354 142.29023725 142.29167534 142.29251794 142.29251794 142.29167534 142.29023725 142.28884354 142.28788590 142.28648623 142.28365248 142.27887659 142.27309014 142.26691883 142.25514280 142.25514280 142.25514280 142.25514280 142.25514280 142.25514280 142.25514280 142.25514280 142.25514280 142.25514280 142.25514280 142.25514280 142.25514280 142.25514280 142.25514280 142.25514280 142.25514280 142.25514280 142.26606328 142.27338469 142.28150868 142.28695986 142.29053867 142.29268822 142.29344444 142.29325901 142.29281541 142.29264178 142.29274675 142.29287941 142.29287941 142.29274675 142.29264178 142.29281541 142.29325901 142.29344444 142.29268822 142.29053867 142.28695986 142.28150868 142.27338469 142.26606328 142.25514280 142.25514280 142.25514280 142.25514280 142.25514280 142.25514280 142.25514280 142.25514280 142.25514280 142.25514280 142.25514280 142.25514280 142.25514280 142.25514280 142.25514280 142.26868270 142.27930310 142.28663311 142.29163182 142.29398847 142.29436571 142.29351442 142.29193052 142.29007218 142.28837799 142.28714170 142.28641152 142.28608823 142.28608823 142.28641152 142.28714170 142.28837799 142.29007218 142.29193052 142.29351442 142.29436571 142.29398847 142.29163182 142.28663311 142.27930310 142.26868270 142.25514280 142.25514280 142.25514280 142.25514280 142.25514280 142.25514280 142.25514280 142.25514280 142.25514280 142.25514280 142.25514280 142.25514280 142.26222281 142.27158789 142.28225047 142.28995902 142.29394876 142.29486201 142.29348353 142.29079510 142.28763355 142.28451916 142.28175666 142.27953018 142.27792140 142.27691160 142.27643210 142.27643210 142.27691160 142.27792140 142.27953018 142.28175666 142.28451916 142.28763355 142.29079510 142.29348353 142.29486201 142.29394876 142.28995902 142.28225047 142.27158789 142.26222281 142.25514280 142.25514280 142.25514280 142.25514280 142.25514280 142.25514280 142.25514280 142.25514280 142.25514280 142.25514280 142.27188375 142.28387522 142.29189977 142.29538855 142.29493398 142.29186726 142.28751927 142.28293725 142.27876486 142.27527753 142.27252807 142.27047460 142.26904249 142.26814829 142.26772091 142.26772091 142.26814829 142.26904249 142.27047460 142.27252807 142.27527753 142.27876486 142.28293725 142.28751927 142.29186726 142.29493398 142.29538855 142.29189977 142.28387522 142.27188375 142.25514280 142.25514280 142.25514280 142.25514280 142.25514280 142.25514280 142.25514280 142.25514280 142.25514280 142.26924794 142.28335338 142.29291030 142.29677731 142.29559145 142.29110514 142.28522841 142.27937228 142.27430725 142.27029358 142.26728532 142.26511189 142.26359060 142.26257204 142.26194869 142.26165291 142.26165291 142.26194869 142.26257204 142.26359060 142.26511189 142.26728532 142.27029358 142.27430725 142.27937228 142.28522841 142.29110514 142.29559145 142.29677731 142.29291030 142.28335338 142.26924794 142.25514280 142.25514280 142.25514280 142.25514280 142.25514280 142.25514280 142.25514280 142.26598805 142.28027777 142.29221376 142.29809691 142.29748765 142.29225176 142.28499197 142.27778880 142.27175125 142.26718552 142.26395103 142.26174797 142.26027941 142.25931469 142.25869680 142.25832851 142.25815597 142.25815597 142.25832851 142.25869680 142.25931469 142.26027941 142.26174797 142.26395103 142.26718552 142.27175125 142.27778880 142.28499197 142.29225176 142.29748765 142.29809691 142.29221376 142.28027777 142.26598805 142.25514280 142.25514280 142.25514280 142.25514280 142.25514280 142.25514280 142.27200379 142.28752264 142.29761741 142.30001085 142.29566394 142.28760298 142.27891345 142.27150857 142.26602916 142.26232725 142.25996380 142.25849933 142.25760066 142.25704884 142.25671246 142.25651815 142.25642859 142.25642859 142.25651815 142.25671246 142.25704884 142.25760066 142.25849933 142.25996380 142.26232725 142.26602916 142.27150857 142.27891345 142.28760298 142.29566394 142.30001085 142.29761741 142.28752264 142.27200379 142.25514280 142.25514280 142.25514280 142.25514280 142.25514280 142.25514280 142.27563572 142.29175096 142.30029355 142.30006066 142.29319605 142.28353713 142.27434624 142.26724835 142.26246571 142.25952623 142.25782073 142.25685846 142.25631702 142.25600820 142.25583018 142.25573104 142.25568623 142.25568623 142.25573104 142.25583018 142.25600820 142.25631702 142.25685846 142.25782073 142.25952623 142.26246571 142.26724835 142.27434624 142.28353713 142.29319605 142.30006066 142.30029355 142.29175096 142.27563572 142.25514280 142.25514280 142.25514280 142.25514280 142.25514280 142.26154579 142.27870462 142.29392810 142.30134334 142.29967583 142.29157468 142.28124175 142.27196134 142.26515550 142.26081035 142.25829334 142.25692506 142.25620478 142.25582665 142.25562415 142.25551314 142.25545337 142.25542685 142.25542685 142.25545337 142.25551314 142.25562415 142.25582665 142.25620478 142.25692506 142.25829334 142.26081035 142.26515550 142.27196134 142.28124175 142.29157468 142.29967583 142.30134334 142.29392810 142.27870462 142.26154579 142.25514280 142.25514280 142.25514280 142.25514280 142.26154579 142.27870462 142.29392810 142.30134334 142.29967583 142.29157468 142.28124175 142.27196134 142.26515550 142.26081035 142.25829334 142.25692506 142.25620478 142.25582665 142.25562415 142.25551314 142.25545337 142.25542685 142.25542685 142.25545337 142.25551314 142.25562415 142.25582665 142.25620478 142.25692506 142.25829334 142.26081035 142.26515550 142.27196134 142.28124175 142.29157468 142.29967583 142.30134334 142.29392810 142.27870462 142.26154579 142.25514280 142.25514280 142.25514280 142.25514280 142.25514280 142.27563572 142.29175096 142.30029355 142.30006066 142.29319605 142.28353713 142.27434624 142.26724835 142.26246571 142.25952623 142.25782073 142.25685846 142.25631702 142.25600820 142.25583018 142.25573104 142.25568623 142.25568623 142.25573104 142.25583018 142.25600820 142.25631702 142.25685846 142.25782073 142.25952623 142.26246571 142.26724835 142.27434624 142.28353713 142.29319605 142.30006066 142.30029355 142.29175096 142.27563572 142.25514280 142.25514280 142.25514280 142.25514280 142.25514280 142.25514280 142.27200379 142.28752264 142.29761741 142.30001085 142.29566394 142.28760298 142.27891345 142.27150857 142.26602916 142.26232725 142.25996380 142.25849933 142.25760066 142.25704884 142.25671246 142.25651815 142.25642859 142.25642859 142.25651815 142.25671246 142.25704884 142.25760066 142.25849933 142.25996380 142.26232725 142.26602916 142.27150857 142.27891345 142.28760298 142.29566394 142.30001085 142.29761741 142.28752264 142.27200379 142.25514280 142.25514280 142.25514280 142.25514280 142.25514280 142.25514280 142.26598805 142.28027777 142.29221376 142.29809691 142.29748765 142.29225176 142.28499197 142.27778880 142.27175125 142.26718552 142.26395103 142.26174797 142.26027941 142.25931469 142.25869680 142.25832851 142.25815597 142.25815597 142.25832851 142.25869680 142.25931469 142.26027941 142.26174797 142.26395103 142.26718552 142.27175125 142.27778880 142.28499197 142.29225176 142.29748765 142.29809691 142.29221376 142.28027777 142.26598805 142.25514280 142.25514280 142.25514280 142.25514280 142.25514280 142.25514280 142.25514280 142.26924794 142.28335338 142.29291030 142.29677731 142.29559145 142.29110514 142.28522841 142.27937228 142.27430725 142.27029358 142.26728532 142.26511189 142.26359060 142.26257204 142.26194869 142.26165291 142.26165291 142.26194869 142.26257204 142.26359060 142.26511189 142.26728532 142.27029358 142.27430725 142.27937228 142.28522841 142.29110514 142.29559145 142.29677731 142.29291030 142.28335338 142.26924794 142.25514280 142.25514280 142.25514280 142.25514280 142.25514280 142.25514280 142.25514280 142.25514280 142.25514280 142.27188375 142.28387522 142.29189977 142.29538855 142.29493398 142.29186726 142.28751927 142.28293725 142.27876486 142.27527753 142.27252807 142.27047460 142.26904249 142.26814829 142.26772091 142.26772091 142.26814829 142.26904249 142.27047460 142.27252807 142.27527753 142.27876486 142.28293725 142.28751927 142.29186726 142.29493398 142.29538855 142.29189977 142.28387522 142.27188375 142.25514280 142.25514280 142.25514280 142.25514280 142.25514280 142.25514280 142.25514280 142.25514280 142.25514280 142.25514280 142.26222281 142.27158789 142.28225047 142.28995902 142.29394876 142.29486201 142.29348353 142.29079510 142.28763355 142.28451916 142.28175666 142.27953018 142.27792140 142.27691160 142.27643210 142.27643210 142.27691160 142.27792140 142.27953018 142.28175666 142.28451916 142.28763355 142.29079510 142.29348353 142.29486201 142.29394876 142.28995902 142.28225047 142.27158789 142.26222281 142.25514280 142.25514280 142.25514280 142.25514280 142.25514280 142.25514280 142.25514280 142.25514280 142.25514280 142.25514280 142.25514280 142.25514280 142.26868270 142.27930310 142.28663311 142.29163182 142.29398847 142.29436571 142.29351442 142.29193052 142.29007218 142.28837799 142.28714170 142.28641152 142.28608823 142.28608823 142.28641152 142.28714170 142.28837799 142.29007218 142.29193052 142.29351442 142.29436571 142.29398847 142.29163182 142.28663311 142.27930310 142.26868270 142.25514280 142.25514280 142.25514280 142.25514280 142.25514280 142.25514280 142.25514280 142.25514280 142.25514280 142.25514280 142.25514280 142.25514280 142.25514280 142.25514280 142.25514280 142.26606328 142.27338469 142.28150868 142.28695986 142.29053867 142.29268822 142.29344444 142.29325901 142.29281541 142.29264178 142.29274675 142.29287941 142.29287941 142.29274675 142.29264178 142.29281541 142.29325901 142.29344444 142.29268822 142.29053867 142.28695986 142.28150868 142.27338469 142.26606328 142.25514280 142.25514280 142.25514280 142.25514280 142.25514280 142.25514280 142.25514280 142.25514280 142.25514280 142.25514280 142.25514280 142.25514280 142.25514280 142.25514280 142.25514280 142.25514280 142.25514280 142.25514280 142.26691883 142.27309014 142.27887659 142.28365248 142.28648623 142.28788590 142.28884354 142.29023725 142.29167534 142.29251794 142.29251794 142.29167534 142.29023725 142.28884354 142.28788590 142.28648623 142.28365248 142.27887659 142.27309014 142.26691883 142.25514280 142.25514280 142.25514280 142.25514280 142.25514280 142.25514280 142.25514280 142.25514280 142.25514280 142.25514280 142.25514280 142.25514280 142.25514280 142.25514280 142.25514280 142.25514280 142.25514280 142.25514280 142.25514280 142.25514280 142.25514280 142.25514280 142.26315719 142.26907804 142.27224718 142.27393544 142.27546979 142.27884114 142.28191288 142.28349072 142.28349072 142.28191288 142.27884114 142.27546979 142.27393544 142.27224718 142.26907804 142.26315719 142.25514280 142.25514280 142.25514280 142.25514280 142.25514280 142.25514280 142.25514280 142.25514280 142.25514280 142.25514280 142.25514280 142.25514280 142.25514280 142.25514280 142.25514280 142.25514280 142.25514280 142.25514280 142.25514280 142.25514280 142.25514280 142.25514280 142.25514280 142.25514280 142.25514280 142.25514280 142.25514280 142.25514280 142.25514280 142.26277080 142.26728336 142.26906528 142.26906528 142.26728336 142.26277080 142.25514280 142.25514280 142.25514280 142.25514280 142.25514280 142.25514280 142.25514280 142.25514280 142.25514280 142.25514280 142.25514280 142.25514280 142.25514280 142.25514280 142.25514280 142.25514280 142.25514280 142.25514280 142.25514280 142.25514280 142.25514280 142.25514280 142.25514280 142.25514280 142.25514280 142.25514280 142.25514280 142.25514280 142.25514280 142.25514280 142.25514280 142.25514280 142.25514280 142.25514280 142.25514280 142.25514280 142.25514280 142.25514280 142.25514280 142.25514280 142.25514280 142.25514280 142.25514280 142.25514280 142.25514280 142.25514280 142.25514280 142.25514280 142.25514280 142.25514280 142.25514280 142.25514280 142.25514280 142.25514280 142.25514280 142.25514280 142.25514280 142.25514280 142.25514280 142.25514280 142.25514280 142.25514280 142.25514280 142.25514280 142.25514280 142.25514280 142.25514280 142.25514280 142.25514280 142.25514280 142.25514280 142.25514280 142.25514280 142.25514280 142.25514280 142.25514280 142.25514280 142.25514280 142.25514280 142.25514280 142.25514280 142.25514280 142.25514280 142.25514280 142.25514280 142.25514280 142.25514280 142.25514280 142.25514280 142.25514280 142.25514280 142.25514280 142.25514280 142.25514280 142.25514280 142.25514280 142.25514280 142.25514280 142.25514280 142.25514280 142.25514280 142.25514280 142.25514280 142.25514280 142.25514280 142.25514280 142.25514280 142.25514280 142.25514280 142.25514280 142.25514280 142.25514280 142.25514280 142.25514280 142.25514280 142.25514280 142.25514280 142.25514280 142.25514280 142.25514280 142.25514280 142.25514280 142.25514280 142.25514280 142.25514280 142.25514280 142.25514280 142.25514280 142.25514280 142.25514280 142.25514280 142.25514280 142.25514280 142.25514280 142.25514280 142.25514280 142.25514280 142.25514280 142.25514280 142.25514280 142.25514280 142.25514280 142.25514280 142.25514280 142.25514280 142.25514280 142.25514280 142.25514280 142.25514280 142.25514280 142.25514280 142.25514280 142.25514280 142.25514280 142.25514280 142.25514280 142.25514280 142.25514280 142.25514280 142.25514280 142.25514280 142.25514280 142.25514280 142.25514280 142.25514280 142.25514280 142.25514280 142.25514280 142.25514280 142.25514280 142.25514280 142.25514280 142.25514280 142.25514280 142.25514280 142.25514280 142.25514280 142.25514280 142.25514280 142.25514280 142.25514280 142.25514280 142.25514280 142.25514280 142.25514280 142.25514280 142.25514280 142.25514280 142.25514280 142.25514280 142.25514280 142.25514280 142.25514280 142.25514280 142.25514280 142.25514280 142.25514280 142.25514280 142.25514280 142.25514280 142.25514280 142.25514280 142.25514280 142.25514280 142.25514280 142.25514280 142.25514280 142.25514280 142.25514280 142.25514280 142.25514280 142.25514280 142.25514280 142.25514280 142.25514280 142.25514280 142.25514280 142.25514280 142.25514280 142.25514280 142.25514280 142.25514280 142.25514280 142.25514280 142.25514280 142.25514280 142.25514280 142.25514280 142.25514280 142.25514280 142.25514280 142.25514280 142.25514280 142.25514280 142.25514280 142.25514280 142.25514280 142.25514280 142.25514280 142.25514280 142.25514280 142.25514280 142.25514280 142.25514280 142.25514280 142.25514280 142.25514280 142.25514280 142.25514280 142.25514280 142.25514280 142.25514280 142.25514280 142.25514280 142.25514280 142.25514280 142.25514280 142.25514280 142.25514280 142.25514280 142.25514280 142.25514280 142.25514280 142.25514280 142.25514280 142.25514280 142.25514280 142.25514280 142.25514280 142.25514280 142.25514280 142.25514280 142.25514280 142.25514280 142.25514280 142.25514280 142.25514280 142.25514280 142.25514280 142.25514280 142.25514280 142.25514280 142.25514280 142.25514280 142.25514280 142.25514280 142.25514280 142.25514280 142.25514280 142.25514280 142.25514280 142.25514280 142.25514280 142.25514280 142.25514280 142.25514280 142.25514280 142.25514280 142.25514280 142.25514280 142.25514280 142.25514280 142.25514280 142.25514280 142.25514280 142.25514280 142.25514280 142.25514280 142.25514280 142.25514280 142.25514280 142.25514280 142.25514280 142.25514280 142.25514280 142.25514280 142.25514280 142.25514280 142.25514280 142.25514280 142.25514280 142.25514280 142.25514280 142.25514280 142.25514280 142.25514280 142.25514280 142.25514280 142.25514280 142.25514280 142.25514280 142.25514280 142.25514280 142.25514280 142.25514280 142.25514280 142.25514280 