# vtk DataFile Version 3.0
VTK - Matlab export
ASCII
DATASET STRUCTURED_POINTS
DIMENSIONS 40 40 1
SPACING 1 1 1
ORIGIN 0 0 0
POINT_DATA 1600
SCALARS lambda-2 float 1
LOOKUP_TABLE default
7.22156776 7.22156776 7.22156776 7.22156776 7.22156776 7.22156776 7.22156776 7.22156776 7.22156776 7.22156776 7.22156776 7.22156776 7.22156776 7.22156776 7.22156776 7.22156776 7.22156776 7.22156776 7.22156776 7.22156776 7.22156776 7.22156776 7.22156776 7.22156776 7.22156776 7.22156776 7.22156776 7.22156776 7.22156776 7.22156776 7.22156776 7.22156776 7.22156776 7.22156776 7.22156776 7.22156776 7.22156776 7.22156776 7.22156776 7.22156776 7.22156776 7.22156776 7.22156776 7.22156776 7.22156776 7.22156776 7.22156776 7.22156776 7.22156776 7.22156776 7.22156776 7.22156776 7.22156776 7.22156776 7.22156776 7.22156776 7.22156776 7.22156776 7.22156776 7.22156776 7.22156776 7.22156776 7.22156776 7.22156776 7.22156776 7.22156776 7.22156776 7.22156776 7.22156776 7.22156776 7.22156776 7.22156776 7.22156776 7.22156776 7.22156776 7.22156776 7.22156776 7.22156776 7.22156776 7.22156776 7.22156776 7.22156776 7.22156776 7.22156776 7.22156776 7.22156776 7.22156776 7.22156776 7.22156776 7.22156776 7.22156776 7.22156776 7.22156776 7.22156776 7.22156776 7.22156776 7.22156776 7.22156776 7.22156776 7.22156776 7.22156776 7.22156776 7.22156776 7.22156776 7.22156776 7.22156776 7.22156776 7.22156776 7.22156776 7.22156776 7.22156776 7.22156776 7.22156776 7.22156776 7.22156776 7.22156776 7.22156776 7.22156776 7.22156776 7.22156776 7.22156776 7.22156776 7.22156776 7.22156776 7.22156776 7.22156776 7.22156776 7.22156776 7.22156776 7.22156776 7.22156776 7.22156776 7.22156776 7.22156776 7.22156776 7.22156776 7.22156776 7.22156776 7.22156776 7.22156776 7.22156776 7.22156776 7.22156776 7.22156776 7.22156776 7.22156776 7.22156776 7.22156776 7.22156776 7.22156776 7.22156776 7.22156776 7.22156776 7.22156776 7.22156776 7.22156776 7.22156776 7.22156776 7.22156776 7.22156776 7.22156776 7.22156776 7.22156776 7.22156776 7.22156776 7.22156776 7.22156776 7.22156776 7.22156776 7.22156776 7.22156776 7.22156776 7.22156776 7.22156776 7.22156776 7.22156776 7.22156776 7.22156776 7.22156776 7.22156776 7.22156776 7.22156776 7.22156776 7.22156776 7.22156776 7.22156776 7.22156776 7.22156776 7.22156776 7.22156776 7.22156776 7.22156776 7.22156776 7.22156776 7.22156776 7.22156776 7.22156776 7.22156776 7.22156776 7.22156776 7.22156776 7.22156776 7.22156776 7.22156776 7.22156776 7.22156776 7.22156776 7.22156776 7.22156776 7.22156776 7.22156776 7.22156776 7.22156776 7.22156776 7.22156776 7.22156776 7.22156776 7.22156776 7.22156776 7.22156776 7.22156776 7.22156776 7.22156776 7.22156776 7.22156776 7.22156776 7.22156776 7.22156776 7.22156776 7.22156776 7.22156776 7.22156776 7.22156776 7.22156776 7.22156776 7.22156776 7.22156776 7.22156776 7.22156776 7.22156776 7.22156776 7.22156776 7.22156776 7.22156776 7.22156776 7.22156776 7.22156776 7.22156776 7.22156776 7.22156776 7.22156776 7.22156776 7.22156776 7.22156776 7.22156776 7.22156776 7.22156776 7.22156776 7.22156776 7.22156776 7.22156776 7.22156776 7.22156776 7.22156776 7.22156776 7.22156776 7.22156776 7.22156776 7.22156776 7.22156776 7.22156776 7.22156776 7.22156776 7.22156776 7.22156776 7.22156776 7.22156776 7.22156776 7.22156776 7.22156776 7.22156776 7.22156776 7.22156776 7.22156776 7.22156776 7.22156776 7.22156776 7.22156776 7.22156776 7.22156776 7.22156776 7.22156776 7.22156776 7.22156776 7.22156776 7.22156776 7.22156776 7.22156776 7.22156776 7.22156776 7.22156776 7.22156776 7.22156776 7.22156776 7.22156776 7.22156776 7.22156776 7.22156776 7.22156776 7.22156776 7.22156776 7.22156776 7.22156776 7.22156776 7.22156776 7.22156776 7.22156776 7.22156776 7.22156776 7.22156776 7.22156776 7.22156776 7.22156776 7.22156776 7.22156776 7.22156776 7.22156776 7.22156776 7.22156776 7.22156776 7.22156776 7.22156776 7.22156776 7.22156776 7.22156776 7.22156776 7.22156776 7.22075863 7.22032377 7.22016499 7.22016499 7.22032377 7.22075863 7.22156776 7.22156776 7.22156776 7.22156776 7.22156776 7.22156776 7.22156776 7.22156776 7.22156776 7.22156776 7.22156776 7.22156776 7.22156776 7.22156776 7.22156776 7.22156776 7.22156776 7.22156776 7.22156776 7.22156776 7.22156776 7.22156776 7.22156776 7.22156776 7.22156776 7.22156776 7.22156776 7.22156776 7.22156776 7.22071375 7.22007582 7.21969016 7.21943392 7.21920273 7.21882407 7.21851786 7.21837065 7.21837065 7.21851786 7.21882407 7.21920273 7.21943392 7.21969016 7.22007582 7.22071375 7.22156776 7.22156776 7.22156776 7.22156776 7.22156776 7.22156776 7.22156776 7.22156776 7.22156776 7.22156776 7.22156776 7.22156776 7.22156776 7.22156776 7.22156776 7.22156776 7.22156776 7.22156776 7.22156776 7.22156776 7.22156776 7.22156776 7.22029947 7.21958000 7.21885418 7.21819457 7.21769461 7.21732595 7.21702996 7.21675269 7.21653638 7.21642389 7.21642389 7.21653638 7.21675269 7.21702996 7.21732595 7.21769461 7.21819457 7.21885418 7.21958000 7.22029947 7.22156776 7.22156776 7.22156776 7.22156776 7.22156776 7.22156776 7.22156776 7.22156776 7.22156776 7.22156776 7.22156776 7.22156776 7.22156776 7.22156776 7.22156776 7.22156776 7.22156776 7.22156776 7.22038915 7.21951920 7.21848082 7.21761353 7.21686185 7.21622073 7.21571635 7.21533635 7.21504806 7.21482351 7.21466428 7.21458225 7.21458225 7.21466428 7.21482351 7.21504806 7.21533635 7.21571635 7.21622073 7.21686185 7.21761353 7.21848082 7.21951920 7.22038915 7.22156776 7.22156776 7.22156776 7.22156776 7.22156776 7.22156776 7.22156776 7.22156776 7.22156776 7.22156776 7.22156776 7.22156776 7.22156776 7.22156776 7.22156776 7.22007753 7.21877587 7.21763766 7.21658268 7.21568579 7.21494843 7.21436023 7.21391404 7.21358979 7.21335898 7.21319675 7.21309100 7.21303857 7.21303857 7.21309100 7.21319675 7.21335898 7.21358979 7.21391404 7.21436023 7.21494843 7.21568579 7.21658268 7.21763766 7.21877587 7.22007753 7.22156776 7.22156776 7.22156776 7.22156776 7.22156776 7.22156776 7.22156776 7.22156776 7.22156776 7.22156776 7.22156776 7.22156776 7.22085232 7.21979494 7.21839591 7.21703634 7.21581602 7.21476113 7.21390165 7.21323714 7.21274888 7.21241085 7.21219085 7.21205507 7.21197462 7.21192988 7.21190992 7.21190992 7.21192988 7.21197462 7.21205507 7.21219085 7.21241085 7.21274888 7.21323714 7.21390165 7.21476113 7.21581602 7.21703634 7.21839591 7.21979494 7.22085232 7.22156776 7.22156776 7.22156776 7.22156776 7.22156776 7.22156776 7.22156776 7.22156776 7.22156776 7.22156776 7.21983552 7.21829624 7.21677392 7.21535997 7.21412940 7.21312225 7.21235401 7.21181278 7.21146698 7.21127510 7.21119240 7.21117673 7.21119327 7.21121697 7.21123242 7.21123242 7.21121697 7.21119327 7.21117673 7.21119240 7.21127510 7.21146698 7.21181278 7.21235401 7.21312225 7.21412940 7.21535997 7.21677392 7.21829624 7.21983552 7.22156776 7.22156776 7.22156776 7.22156776 7.22156776 7.22156776 7.22156776 7.22156776 7.22156776 7.22020660 7.21856180 7.21689103 7.21529004 7.21385528 7.21265921 7.21173957 7.21110025 7.21071538 7.21053855 7.21051368 7.21058410 7.21069919 7.21081843 7.21091283 7.21096430 7.21096430 7.21091283 7.21081843 7.21069919 7.21058410 7.21051368 7.21053855 7.21071538 7.21110025 7.21173957 7.21265921 7.21385528 7.21529004 7.21689103 7.21856180 7.22020660 7.22156776 7.22156776 7.22156776 7.22156776 7.22156776 7.22156776 7.22156776 7.22060831 7.21913766 7.21742081 7.21566746 7.21402239 7.21259589 7.21146136 7.21065084 7.21015659 7.20993843 7.20993526 7.21007768 7.21029847 7.21053976 7.21075650 7.21091704 7.21100190 7.21100190 7.21091704 7.21075650 7.21053976 7.21029847 7.21007768 7.20993526 7.20993843 7.21015659 7.21065084 7.21146136 7.21259589 7.21402239 7.21566746 7.21742081 7.21913766 7.22060831 7.22156776 7.22156776 7.22156776 7.22156776 7.22156776 7.22156776 7.22006764 7.21836133 7.21652384 7.21470041 7.21303116 7.21162825 7.21056325 7.20986147 7.20950431 7.20943871 7.20959078 7.20988003 7.21023084 7.21057979 7.21087872 7.21109449 7.21120704 7.21120704 7.21109449 7.21087872 7.21057979 7.21023084 7.20988003 7.20959078 7.20943871 7.20950431 7.20986147 7.21056325 7.21162825 7.21303116 7.21470041 7.21652384 7.21836133 7.22006764 7.22156776 7.22156776 7.22156776 7.22156776 7.22156776 7.22156776 7.21972145 7.21784106 7.21590792 7.21403479 7.21235410 7.21097637 7.20997034 7.20935546 7.20910462 7.20915502 7.20942336 7.20982119 7.21026710 7.21069404 7.21105200 7.21130718 7.21143939 7.21143939 7.21130718 7.21105200 7.21069404 7.21026710 7.20982119 7.20942336 7.20915502 7.20910462 7.20935546 7.20997034 7.21097637 7.21235410 7.21403479 7.21590792 7.21784106 7.21972145 7.22156776 7.22156776 7.22156776 7.22156776 7.22156776 7.22102096 7.21944147 7.21755748 7.21559060 7.21369542 7.21201126 7.21064935 7.20967694 7.20911017 7.20891727 7.20903021 7.20936067 7.20981608 7.21031208 7.21077986 7.21116858 7.21144419 7.21158659 7.21158659 7.21144419 7.21116858 7.21077986 7.21031208 7.20981608 7.20936067 7.20903021 7.20891727 7.20911017 7.20967694 7.21064935 7.21201126 7.21369542 7.21559060 7.21755748 7.21944147 7.22102096 7.22156776 7.22156776 7.22156776 7.22156776 7.22102096 7.21944147 7.21755748 7.21559060 7.21369542 7.21201126 7.21064935 7.20967694 7.20911017 7.20891727 7.20903021 7.20936067 7.20981608 7.21031208 7.21077986 7.21116858 7.21144419 7.21158659 7.21158659 7.21144419 7.21116858 7.21077986 7.21031208 7.20981608 7.20936067 7.20903021 7.20891727 7.20911017 7.20967694 7.21064935 7.21201126 7.21369542 7.21559060 7.21755748 7.21944147 7.22102096 7.22156776 7.22156776 7.22156776 7.22156776 7.22156776 7.21972145 7.21784106 7.21590792 7.21403479 7.21235410 7.21097637 7.20997034 7.20935546 7.20910462 7.20915502 7.20942336 7.20982119 7.21026710 7.21069404 7.21105200 7.21130718 7.21143939 7.21143939 7.21130718 7.21105200 7.21069404 7.21026710 7.20982119 7.20942336 7.20915502 7.20910462 7.20935546 7.20997034 7.21097637 7.21235410 7.21403479 7.21590792 7.21784106 7.21972145 7.22156776 7.22156776 7.22156776 7.22156776 7.22156776 7.22156776 7.22006764 7.21836133 7.21652384 7.21470041 7.21303116 7.21162825 7.21056325 7.20986147 7.20950431 7.20943871 7.20959078 7.20988003 7.21023084 7.21057979 7.21087872 7.21109449 7.21120704 7.21120704 7.21109449 7.21087872 7.21057979 7.21023084 7.20988003 7.20959078 7.20943871 7.20950431 7.20986147 7.21056325 7.21162825 7.21303116 7.21470041 7.21652384 7.21836133 7.22006764 7.22156776 7.22156776 7.22156776 7.22156776 7.22156776 7.22156776 7.22060831 7.21913766 7.21742081 7.21566746 7.21402239 7.21259589 7.21146136 7.21065084 7.21015659 7.20993843 7.20993526 7.21007768 7.21029847 7.21053976 7.21075650 7.21091704 7.21100190 7.21100190 7.21091704 7.21075650 7.21053976 7.21029847 7.21007768 7.20993526 7.20993843 7.21015659 7.21065084 7.21146136 7.21259589 7.21402239 7.21566746 7.21742081 7.21913766 7.22060831 7.22156776 7.22156776 7.22156776 7.22156776 7.22156776 7.22156776 7.22156776 7.22020660 7.21856180 7.21689103 7.21529004 7.21385528 7.21265921 7.21173957 7.21110025 7.21071538 7.21053855 7.21051368 7.21058410 7.21069919 7.21081843 7.21091283 7.21096430 7.21096430 7.21091283 7.21081843 7.21069919 7.21058410 7.21051368 7.21053855 7.21071538 7.21110025 7.21173957 7.21265921 7.21385528 7.21529004 7.21689103 7.21856180 7.22020660 7.22156776 7.22156776 7.22156776 7.22156776 7.22156776 7.22156776 7.22156776 7.22156776 7.22156776 7.21983552 7.21829624 7.21677392 7.21535997 7.21412940 7.21312225 7.21235401 7.21181278 7.21146698 7.21127510 7.21119240 7.21117673 7.21119327 7.21121697 7.21123242 7.21123242 7.21121697 7.21119327 7.21117673 7.21119240 7.21127510 7.21146698 7.21181278 7.21235401 7.21312225 7.21412940 7.21535997 7.21677392 7.21829624 7.21983552 7.22156776 7.22156776 7.22156776 7.22156776 7.22156776 7.22156776 7.22156776 7.22156776 7.22156776 7.22156776 7.22085232 7.21979494 7.21839591 7.21703634 7.21581602 7.21476113 7.21390165 7.21323714 7.21274888 7.21241085 7.21219085 7.21205507 7.21197462 7.21192988 7.21190992 7.21190992 7.21192988 7.21197462 7.21205507 7.21219085 7.21241085 7.21274888 7.21323714 7.21390165 7.21476113 7.21581602 7.21703634 7.21839591 7.21979494 7.22085232 7.22156776 7.22156776 7.22156776 7.22156776 7.22156776 7.22156776 7.22156776 7.22156776 7.22156776 7.22156776 7.22156776 7.22156776 7.22007753 7.21877587 7.21763766 7.21658268 7.21568579 7.21494843 7.21436023 7.21391404 7.21358979 7.21335898 7.21319675 7.21309100 7.21303857 7.21303857 7.21309100 7.21319675 7.21335898 7.21358979 7.21391404 7.21436023 7.21494843 7.21568579 7.21658268 7.21763766 7.21877587 7.22007753 7.22156776 7.22156776 7.22156776 7.22156776 7.22156776 7.22156776 7.22156776 7.22156776 7.22156776 7.22156776 7.22156776 7.22156776 7.22156776 7.22156776 7.22156776 7.22038915 7.21951920 7.21848082 7.21761353 7.21686185 7.21622073 7.21571635 7.21533635 7.21504806 7.21482351 7.21466428 7.21458225 7.21458225 7.21466428 7.21482351 7.21504806 7.21533635 7.21571635 7.21622073 7.21686185 7.21761353 7.21848082 7.21951920 7.22038915 7.22156776 7.22156776 7.22156776 7.22156776 7.22156776 7.22156776 7.22156776 7.22156776 7.22156776 7.22156776 7.22156776 7.22156776 7.22156776 7.22156776 7.22156776 7.22156776 7.22156776 7.22156776 7.22029947 7.21958000 7.21885418 7.21819457 7.21769461 7.21732595 7.21702996 7.21675269 7.21653638 7.21642389 7.21642389 7.21653638 7.21675269 7.21702996 7.21732595 7.21769461 7.21819457 7.21885418 7.21958000 7.22029947 7.22156776 7.22156776 7.22156776 7.22156776 7.22156776 7.22156776 7.22156776 7.22156776 7.22156776 7.22156776 7.22156776 7.22156776 7.22156776 7.22156776 7.22156776 7.22156776 7.22156776 7.22156776 7.22156776 7.22156776 7.22156776 7.22156776 7.22071375 7.22007582 7.21969016 7.21943392 7.21920273 7.21882407 7.21851786 7.21837065 7.21837065 7.21851786 7.21882407 7.21920273 7.21943392 7.21969016 7.22007582 7.22071375 7.22156776 7.22156776 7.22156776 7.22156776 7.22156776 7.22156776 7.22156776 7.22156776 7.22156776 7.22156776 7.22156776 7.22156776 7.22156776 7.22156776 7.22156776 7.22156776 7.22156776 7.22156776 7.22156776 7.22156776 7.22156776 7.22156776 7.22156776 7.22156776 7.22156776 7.22156776 7.22156776 7.22156776 7.22156776 7.22075863 7.22032377 7.22016499 7.22016499 7.22032377 7.22075863 7.22156776 7.22156776 7.22156776 7.22156776 7.22156776 7.22156776 7.22156776 7.22156776 7.22156776 7.22156776 7.22156776 7.22156776 7.22156776 7.22156776 7.22156776 7.22156776 7.22156776 7.22156776 7.22156776 7.22156776 7.22156776 7.22156776 7.22156776 7.22156776 7.22156776 7.22156776 7.22156776 7.22156776 7.22156776 7.22156776 7.22156776 7.22156776 7.22156776 7.22156776 7.22156776 7.22156776 7.22156776 7.22156776 7.22156776 7.22156776 7.22156776 7.22156776 7.22156776 7.22156776 7.22156776 7.22156776 7.22156776 7.22156776 7.22156776 7.22156776 7.22156776 7.22156776 7.22156776 7.22156776 7.22156776 7.22156776 7.22156776 7.22156776 7.22156776 7.22156776 7.22156776 7.22156776 7.22156776 7.22156776 7.22156776 7.22156776 7.22156776 7.22156776 7.22156776 7.22156776 7.22156776 7.22156776 7.22156776 7.22156776 7.22156776 7.22156776 7.22156776 7.22156776 7.22156776 7.22156776 7.22156776 7.22156776 7.22156776 7.22156776 7.22156776 7.22156776 7.22156776 7.22156776 7.22156776 7.22156776 7.22156776 7.22156776 7.22156776 7.22156776 7.22156776 7.22156776 7.22156776 7.22156776 7.22156776 7.22156776 7.22156776 7.22156776 7.22156776 7.22156776 7.22156776 7.22156776 7.22156776 7.22156776 7.22156776 7.22156776 7.22156776 7.22156776 7.22156776 7.22156776 7.22156776 7.22156776 7.22156776 7.22156776 7.22156776 7.22156776 7.22156776 7.22156776 7.22156776 7.22156776 7.22156776 7.22156776 7.22156776 7.22156776 7.22156776 7.22156776 7.22156776 7.22156776 7.22156776 7.22156776 7.22156776 7.22156776 7.22156776 7.22156776 7.22156776 7.22156776 7.22156776 7.22156776 7.22156776 7.22156776 7.22156776 7.22156776 7.22156776 7.22156776 7.22156776 7.22156776 7.22156776 7.22156776 7.22156776 7.22156776 7.22156776 7.22156776 7.22156776 7.22156776 7.22156776 7.22156776 7.22156776 7.22156776 7.22156776 7.22156776 7.22156776 7.22156776 7.22156776 7.22156776 7.22156776 7.22156776 7.22156776 7.22156776 7.22156776 7.22156776 7.22156776 7.22156776 7.22156776 7.22156776 7.22156776 7.22156776 7.22156776 7.22156776 7.22156776 7.22156776 7.22156776 7.22156776 7.22156776 7.22156776 7.22156776 7.22156776 7.22156776 7.22156776 7.22156776 7.22156776 7.22156776 7.22156776 7.22156776 7.22156776 7.22156776 7.22156776 7.22156776 7.22156776 7.22156776 7.22156776 7.22156776 7.22156776 7.22156776 7.22156776 7.22156776 7.22156776 7.22156776 7.22156776 7.22156776 7.22156776 7.22156776 7.22156776 7.22156776 7.22156776 7.22156776 7.22156776 7.22156776 7.22156776 7.22156776 7.22156776 7.22156776 7.22156776 7.22156776 7.22156776 7.22156776 7.22156776 7.22156776 7.22156776 7.22156776 7.22156776 7.22156776 7.22156776 7.22156776 7.22156776 7.22156776 7.22156776 7.22156776 7.22156776 7.22156776 7.22156776 7.22156776 7.22156776 7.22156776 7.22156776 7.22156776 7.22156776 7.22156776 7.22156776 7.22156776 7.22156776 7.22156776 7.22156776 7.22156776 7.22156776 7.22156776 7.22156776 7.22156776 7.22156776 7.22156776 7.22156776 7.22156776 7.22156776 7.22156776 7.22156776 7.22156776 7.22156776 7.22156776 7.22156776 7.22156776 7.22156776 7.22156776 7.22156776 7.22156776 7.22156776 7.22156776 7.22156776 7.22156776 7.22156776 7.22156776 7.22156776 7.22156776 7.22156776 7.22156776 7.22156776 7.22156776 7.22156776 7.22156776 7.22156776 7.22156776 7.22156776 7.22156776 7.22156776 7.22156776 7.22156776 7.22156776 7.22156776 7.22156776 7.22156776 7.22156776 7.22156776 7.22156776 7.22156776 7.22156776 7.22156776 7.22156776 7.22156776 7.22156776 7.22156776 7.22156776 7.22156776 7.22156776 7.22156776 7.22156776 7.22156776 7.22156776 7.22156776 7.22156776 7.22156776 7.22156776 7.22156776 7.22156776 7.22156776 7.22156776 7.22156776 7.22156776 7.22156776 7.22156776 7.22156776 7.22156776 7.22156776 7.22156776 7.22156776 7.22156776 