# vtk DataFile Version 3.0
VTK - Matlab export
ASCII
DATASET STRUCTURED_POINTS
DIMENSIONS 40 40 1
SPACING 1 1 1
ORIGIN 0 0 0
POINT_DATA 1600
SCALARS lambda-2 float 1
LOOKUP_TABLE default
7.22156776 7.22156776 7.22156776 7.22156776 7.22156776 7.22156776 7.22156776 7.22156776 7.22156776 7.22156776 7.22156776 7.22156776 7.22156776 7.22156776 7.22156776 7.22156776 7.22156776 7.22156776 7.22156776 7.22156776 7.22156776 7.22156776 7.22156776 7.22156776 7.22156776 7.22156776 7.22156776 7.22156776 7.22156776 7.22156776 7.22156776 7.22156776 7.22156776 7.22156776 7.22156776 7.22156776 7.22156776 7.22156776 7.22156776 7.22156776 7.22156776 7.22156776 7.22156776 7.22156776 7.22156776 7.22156776 7.22156776 7.22156776 7.22156776 7.22156776 7.22156776 7.22156776 7.22156776 7.22156776 7.22156776 7.22156776 7.22156776 7.22156776 7.22156776 7.22156776 7.22156776 7.22156776 7.22156776 7.22156776 7.22156776 7.22156776 7.22156776 7.22156776 7.22156776 7.22156776 7.22156776 7.22156776 7.22156776 7.22156776 7.22156776 7.22156776 7.22156776 7.22156776 7.22156776 7.22156776 7.22156776 7.22156776 7.22156776 7.22156776 7.22156776 7.22156776 7.22156776 7.22156776 7.22156776 7.22156776 7.22156776 7.22156776 7.22156776 7.22156776 7.22156776 7.22156776 7.22156776 7.22156776 7.22156776 7.22156776 7.22156776 7.22156776 7.22156776 7.22156776 7.22156776 7.22156776 7.22156776 7.22156776 7.22156776 7.22156776 7.22156776 7.22156776 7.22156776 7.22156776 7.22156776 7.22156776 7.22156776 7.22156776 7.22156776 7.22156776 7.22156776 7.22156776 7.22156776 7.22156776 7.22156776 7.22156776 7.22156776 7.22156776 7.22156776 7.22156776 7.22156776 7.22156776 7.22156776 7.22156776 7.22156776 7.22156776 7.22156776 7.22156776 7.22156776 7.22156776 7.22156776 7.22156776 7.22156776 7.22156776 7.22156776 7.22156776 7.22156776 7.22156776 7.22156776 7.22156776 7.22156776 7.22156776 7.22156776 7.22156776 7.22156776 7.22156776 7.22156776 7.22156776 7.22156776 7.22156776 7.22156776 7.22156776 7.22156776 7.22156776 7.22156776 7.22156776 7.22156776 7.22156776 7.22156776 7.22156776 7.22156776 7.22156776 7.22156776 7.22156776 7.22156776 7.22156776 7.22156776 7.22156776 7.22156776 7.22156776 7.22156776 7.22156776 7.22156776 7.22156776 7.22156776 7.22156776 7.22156776 7.22156776 7.22156776 7.22156776 7.22156776 7.22156776 7.22156776 7.22156776 7.22156776 7.22156776 7.22156776 7.22156776 7.22156776 7.22156776 7.22156776 7.22156776 7.22156776 7.22156776 7.22156776 7.22156776 7.22156776 7.22156776 7.22156776 7.22156776 7.22156776 7.22156776 7.22156776 7.22156776 7.22156776 7.22156776 7.22156776 7.22156776 7.22156776 7.22156776 7.22156776 7.22156776 7.22156776 7.22156776 7.22156776 7.22156776 7.22156776 7.22156776 7.22156776 7.22156776 7.22156776 7.22156776 7.22156776 7.22156776 7.22156776 7.22156776 7.22156776 7.22156776 7.22156776 7.22156776 7.22156776 7.22156776 7.22156776 7.22156776 7.22156776 7.22156776 7.22156776 7.22156776 7.22156776 7.22156776 7.22156776 7.22156776 7.22156776 7.22156776 7.22156776 7.22156776 7.22156776 7.22156776 7.22156776 7.22156776 7.22156776 7.22156776 7.22156776 7.22156776 7.22156776 7.22156776 7.22156776 7.22156776 7.22156776 7.22156776 7.22156776 7.22156776 7.22156776 7.22156776 7.22156776 7.22156776 7.22156776 7.22156776 7.22156776 7.22156776 7.22156776 7.22156776 7.22156776 7.22156776 7.22156776 7.22156776 7.22156776 7.22156776 7.22156776 7.22156776 7.22156776 7.22156776 7.22156776 7.22156776 7.22156776 7.22156776 7.22156776 7.22156776 7.22156776 7.22156776 7.22156776 7.22156776 7.22156776 7.22156776 7.22156776 7.22156776 7.22156776 7.22156776 7.22156776 7.22156776 7.22156776 7.22156776 7.22156776 7.22156776 7.22156776 7.22156776 7.22156776 7.22156776 7.22156776 7.22156776 7.22156776 7.22156776 7.22156776 7.22156776 7.22156776 7.22156776 7.22156776 7.22156776 7.22156776 7.22156776 7.22156776 7.22156776 7.22156776 7.22156776 7.22156776 7.22156776 7.22156776 7.21981496 7.21885040 7.21849214 7.21849214 7.21885040 7.21981496 7.22156776 7.22156776 7.22156776 7.22156776 7.22156776 7.22156776 7.22156776 7.22156776 7.22156776 7.22156776 7.22156776 7.22156776 7.22156776 7.22156776 7.22156776 7.22156776 7.22156776 7.22156776 7.22156776 7.22156776 7.22156776 7.22156776 7.22156776 7.22156776 7.22156776 7.22156776 7.22156776 7.22156776 7.22156776 7.21971703 7.21834009 7.21753375 7.21702393 7.21656465 7.21576057 7.21509315 7.21476859 7.21476859 7.21509315 7.21576057 7.21656465 7.21702393 7.21753375 7.21834009 7.21971703 7.22156776 7.22156776 7.22156776 7.22156776 7.22156776 7.22156776 7.22156776 7.22156776 7.22156776 7.22156776 7.22156776 7.22156776 7.22156776 7.22156776 7.22156776 7.22156776 7.22156776 7.22156776 7.22156776 7.22156776 7.22156776 7.22156776 7.21881891 7.21729976 7.21580002 7.21447235 7.21352045 7.21286611 7.21235516 7.21184780 7.21143317 7.21121352 7.21121352 7.21143317 7.21184780 7.21235516 7.21286611 7.21352045 7.21447235 7.21580002 7.21729976 7.21881891 7.22156776 7.22156776 7.22156776 7.22156776 7.22156776 7.22156776 7.22156776 7.22156776 7.22156776 7.22156776 7.22156776 7.22156776 7.22156776 7.22156776 7.22156776 7.22156776 7.22156776 7.22156776 7.21899024 7.21715497 7.21501974 7.21334026 7.21197697 7.21089183 7.21011839 7.20960175 7.20924161 7.20895576 7.20874097 7.20862644 7.20862644 7.20874097 7.20895576 7.20924161 7.20960175 7.21011839 7.21089183 7.21197697 7.21334026 7.21501974 7.21715497 7.21899024 7.22156776 7.22156776 7.22156776 7.22156776 7.22156776 7.22156776 7.22156776 7.22156776 7.22156776 7.22156776 7.22156776 7.22156776 7.22156776 7.22156776 7.22156776 7.21829275 7.21555010 7.21332054 7.21141540 7.20997120 7.20894270 7.20825471 7.20784775 7.20764283 7.20755198 7.20750656 7.20747745 7.20746185 7.20746185 7.20747745 7.20750656 7.20755198 7.20764283 7.20784775 7.20825471 7.20894270 7.20997120 7.21141540 7.21332054 7.21555010 7.21829275 7.22156776 7.22156776 7.22156776 7.22156776 7.22156776 7.22156776 7.22156776 7.22156776 7.22156776 7.22156776 7.22156776 7.22156776 7.21992567 7.21759425 7.21466676 7.21206064 7.21000402 7.20850432 7.20754848 7.20704708 7.20688172 7.20694110 7.20712400 7.20734456 7.20754144 7.20768175 7.20775340 7.20775340 7.20768175 7.20754144 7.20734456 7.20712400 7.20694110 7.20688172 7.20704708 7.20754848 7.20850432 7.21000402 7.21206064 7.21466676 7.21759425 7.21992567 7.22156776 7.22156776 7.22156776 7.22156776 7.22156776 7.22156776 7.22156776 7.22156776 7.22156776 7.22156776 7.21758998 7.21428950 7.21136069 7.20903805 7.20743903 7.20653860 7.20623106 7.20636051 7.20676340 7.20729887 7.20785773 7.20836248 7.20876463 7.20903956 7.20917810 7.20917810 7.20903956 7.20876463 7.20836248 7.20785773 7.20729887 7.20676340 7.20636051 7.20623106 7.20653860 7.20743903 7.20903805 7.21136069 7.21428950 7.21758998 7.22156776 7.22156776 7.22156776 7.22156776 7.22156776 7.22156776 7.22156776 7.22156776 7.22156776 7.21834026 7.21466122 7.21130323 7.20858633 7.20671726 7.20573759 7.20554048 7.20593186 7.20669091 7.20761847 7.20856257 7.20942193 7.21013747 7.21068067 7.21104216 7.21122194 7.21122194 7.21104216 7.21068067 7.21013747 7.20942193 7.20856257 7.20761847 7.20669091 7.20593186 7.20554048 7.20573759 7.20671726 7.20858633 7.21130323 7.21466122 7.21834026 7.22156776 7.22156776 7.22156776 7.22156776 7.22156776 7.22156776 7.22156776 7.21921758 7.21577111 7.21208434 7.20884446 7.20646948 7.20514288 7.20482877 7.20532843 7.20636587 7.20766731 7.20901294 7.21025537 7.21131311 7.21215247 7.21276846 7.21316945 7.21336643 7.21336643 7.21316945 7.21276846 7.21215247 7.21131311 7.21025537 7.20901294 7.20766731 7.20636587 7.20532843 7.20482877 7.20514288 7.20646948 7.20884446 7.21208434 7.21577111 7.21921758 7.22156776 7.22156776 7.22156776 7.22156776 7.22156776 7.22156776 7.21788180 7.21392080 7.21012315 7.20702960 7.20501789 7.20421435 7.20450123 7.20559445 7.20715072 7.20885946 7.21049396 7.21192107 7.21308389 7.21397491 7.21461147 7.21501806 7.21521555 7.21521555 7.21501806 7.21461147 7.21397491 7.21308389 7.21192107 7.21049396 7.20885946 7.20715072 7.20559445 7.20450123 7.20421435 7.20501789 7.20702960 7.21012315 7.21392080 7.21788180 7.22156776 7.22156776 7.22156776 7.22156776 7.22156776 7.22156776 7.21702756 7.21269917 7.20882256 7.20586175 7.20414801 7.20375150 7.20448647 7.20600378 7.20791340 7.20988332 7.21168808 7.21321035 7.21441483 7.21531504 7.21594526 7.21634180 7.21653263 7.21653263 7.21634180 7.21594526 7.21531504 7.21441483 7.21321035 7.21168808 7.20988332 7.20791340 7.20600378 7.20448647 7.20375150 7.20414801 7.20586175 7.20882256 7.21269917 7.21702756 7.22156776 7.22156776 7.22156776 7.22156776 7.22156776 7.22019919 7.21632845 7.21203549 7.20816750 7.20529459 7.20374948 7.20357474 7.20454743 7.20628373 7.20837000 7.21046488 7.21234570 7.21390512 7.21512034 7.21601645 7.21663674 7.21702369 7.21720891 7.21720891 7.21702369 7.21663674 7.21601645 7.21512034 7.21390512 7.21234570 7.21046488 7.20837000 7.20628373 7.20454743 7.20357474 7.20374948 7.20529459 7.20816750 7.21203549 7.21632845 7.22019919 7.22156776 7.22156776 7.22156776 7.22156776 7.22019919 7.21632845 7.21203549 7.20816750 7.20529459 7.20374948 7.20357474 7.20454743 7.20628373 7.20837000 7.21046488 7.21234570 7.21390512 7.21512034 7.21601645 7.21663674 7.21702369 7.21720891 7.21720891 7.21702369 7.21663674 7.21601645 7.21512034 7.21390512 7.21234570 7.21046488 7.20837000 7.20628373 7.20454743 7.20357474 7.20374948 7.20529459 7.20816750 7.21203549 7.21632845 7.22019919 7.22156776 7.22156776 7.22156776 7.22156776 7.22156776 7.21702756 7.21269917 7.20882256 7.20586175 7.20414801 7.20375150 7.20448647 7.20600378 7.20791340 7.20988332 7.21168808 7.21321035 7.21441483 7.21531504 7.21594526 7.21634180 7.21653263 7.21653263 7.21634180 7.21594526 7.21531504 7.21441483 7.21321035 7.21168808 7.20988332 7.20791340 7.20600378 7.20448647 7.20375150 7.20414801 7.20586175 7.20882256 7.21269917 7.21702756 7.22156776 7.22156776 7.22156776 7.22156776 7.22156776 7.22156776 7.21788180 7.21392080 7.21012315 7.20702960 7.20501789 7.20421435 7.20450123 7.20559445 7.20715072 7.20885946 7.21049396 7.21192107 7.21308389 7.21397491 7.21461147 7.21501806 7.21521555 7.21521555 7.21501806 7.21461147 7.21397491 7.21308389 7.21192107 7.21049396 7.20885946 7.20715072 7.20559445 7.20450123 7.20421435 7.20501789 7.20702960 7.21012315 7.21392080 7.21788180 7.22156776 7.22156776 7.22156776 7.22156776 7.22156776 7.22156776 7.21921758 7.21577111 7.21208434 7.20884446 7.20646948 7.20514288 7.20482877 7.20532843 7.20636587 7.20766731 7.20901294 7.21025537 7.21131311 7.21215247 7.21276846 7.21316945 7.21336643 7.21336643 7.21316945 7.21276846 7.21215247 7.21131311 7.21025537 7.20901294 7.20766731 7.20636587 7.20532843 7.20482877 7.20514288 7.20646948 7.20884446 7.21208434 7.21577111 7.21921758 7.22156776 7.22156776 7.22156776 7.22156776 7.22156776 7.22156776 7.22156776 7.21834026 7.21466122 7.21130323 7.20858633 7.20671726 7.20573759 7.20554048 7.20593186 7.20669091 7.20761847 7.20856257 7.20942193 7.21013747 7.21068067 7.21104216 7.21122194 7.21122194 7.21104216 7.21068067 7.21013747 7.20942193 7.20856257 7.20761847 7.20669091 7.20593186 7.20554048 7.20573759 7.20671726 7.20858633 7.21130323 7.21466122 7.21834026 7.22156776 7.22156776 7.22156776 7.22156776 7.22156776 7.22156776 7.22156776 7.22156776 7.22156776 7.21758998 7.21428950 7.21136069 7.20903805 7.20743903 7.20653860 7.20623106 7.20636051 7.20676340 7.20729887 7.20785773 7.20836248 7.20876463 7.20903956 7.20917810 7.20917810 7.20903956 7.20876463 7.20836248 7.20785773 7.20729887 7.20676340 7.20636051 7.20623106 7.20653860 7.20743903 7.20903805 7.21136069 7.21428950 7.21758998 7.22156776 7.22156776 7.22156776 7.22156776 7.22156776 7.22156776 7.22156776 7.22156776 7.22156776 7.22156776 7.21992567 7.21759425 7.21466676 7.21206064 7.21000402 7.20850432 7.20754848 7.20704708 7.20688172 7.20694110 7.20712400 7.20734456 7.20754144 7.20768175 7.20775340 7.20775340 7.20768175 7.20754144 7.20734456 7.20712400 7.20694110 7.20688172 7.20704708 7.20754848 7.20850432 7.21000402 7.21206064 7.21466676 7.21759425 7.21992567 7.22156776 7.22156776 7.22156776 7.22156776 7.22156776 7.22156776 7.22156776 7.22156776 7.22156776 7.22156776 7.22156776 7.22156776 7.21829275 7.21555010 7.21332054 7.21141540 7.20997120 7.20894270 7.20825471 7.20784775 7.20764283 7.20755198 7.20750656 7.20747745 7.20746185 7.20746185 7.20747745 7.20750656 7.20755198 7.20764283 7.20784775 7.20825471 7.20894270 7.20997120 7.21141540 7.21332054 7.21555010 7.21829275 7.22156776 7.22156776 7.22156776 7.22156776 7.22156776 7.22156776 7.22156776 7.22156776 7.22156776 7.22156776 7.22156776 7.22156776 7.22156776 7.22156776 7.22156776 7.21899024 7.21715497 7.21501974 7.21334026 7.21197697 7.21089183 7.21011839 7.20960175 7.20924161 7.20895576 7.20874097 7.20862644 7.20862644 7.20874097 7.20895576 7.20924161 7.20960175 7.21011839 7.21089183 7.21197697 7.21334026 7.21501974 7.21715497 7.21899024 7.22156776 7.22156776 7.22156776 7.22156776 7.22156776 7.22156776 7.22156776 7.22156776 7.22156776 7.22156776 7.22156776 7.22156776 7.22156776 7.22156776 7.22156776 7.22156776 7.22156776 7.22156776 7.21881891 7.21729976 7.21580002 7.21447235 7.21352045 7.21286611 7.21235516 7.21184780 7.21143317 7.21121352 7.21121352 7.21143317 7.21184780 7.21235516 7.21286611 7.21352045 7.21447235 7.21580002 7.21729976 7.21881891 7.22156776 7.22156776 7.22156776 7.22156776 7.22156776 7.22156776 7.22156776 7.22156776 7.22156776 7.22156776 7.22156776 7.22156776 7.22156776 7.22156776 7.22156776 7.22156776 7.22156776 7.22156776 7.22156776 7.22156776 7.22156776 7.22156776 7.21971703 7.21834009 7.21753375 7.21702393 7.21656465 7.21576057 7.21509315 7.21476859 7.21476859 7.21509315 7.21576057 7.21656465 7.21702393 7.21753375 7.21834009 7.21971703 7.22156776 7.22156776 7.22156776 7.22156776 7.22156776 7.22156776 7.22156776 7.22156776 7.22156776 7.22156776 7.22156776 7.22156776 7.22156776 7.22156776 7.22156776 7.22156776 7.22156776 7.22156776 7.22156776 7.22156776 7.22156776 7.22156776 7.22156776 7.22156776 7.22156776 7.22156776 7.22156776 7.22156776 7.22156776 7.21981496 7.21885040 7.21849214 7.21849214 7.21885040 7.21981496 7.22156776 7.22156776 7.22156776 7.22156776 7.22156776 7.22156776 7.22156776 7.22156776 7.22156776 7.22156776 7.22156776 7.22156776 7.22156776 7.22156776 7.22156776 7.22156776 7.22156776 7.22156776 7.22156776 7.22156776 7.22156776 7.22156776 7.22156776 7.22156776 7.22156776 7.22156776 7.22156776 7.22156776 7.22156776 7.22156776 7.22156776 7.22156776 7.22156776 7.22156776 7.22156776 7.22156776 7.22156776 7.22156776 7.22156776 7.22156776 7.22156776 7.22156776 7.22156776 7.22156776 7.22156776 7.22156776 7.22156776 7.22156776 7.22156776 7.22156776 7.22156776 7.22156776 7.22156776 7.22156776 7.22156776 7.22156776 7.22156776 7.22156776 7.22156776 7.22156776 7.22156776 7.22156776 7.22156776 7.22156776 7.22156776 7.22156776 7.22156776 7.22156776 7.22156776 7.22156776 7.22156776 7.22156776 7.22156776 7.22156776 7.22156776 7.22156776 7.22156776 7.22156776 7.22156776 7.22156776 7.22156776 7.22156776 7.22156776 7.22156776 7.22156776 7.22156776 7.22156776 7.22156776 7.22156776 7.22156776 7.22156776 7.22156776 7.22156776 7.22156776 7.22156776 7.22156776 7.22156776 7.22156776 7.22156776 7.22156776 7.22156776 7.22156776 7.22156776 7.22156776 7.22156776 7.22156776 7.22156776 7.22156776 7.22156776 7.22156776 7.22156776 7.22156776 7.22156776 7.22156776 7.22156776 7.22156776 7.22156776 7.22156776 7.22156776 7.22156776 7.22156776 7.22156776 7.22156776 7.22156776 7.22156776 7.22156776 7.22156776 7.22156776 7.22156776 7.22156776 7.22156776 7.22156776 7.22156776 7.22156776 7.22156776 7.22156776 7.22156776 7.22156776 7.22156776 7.22156776 7.22156776 7.22156776 7.22156776 7.22156776 7.22156776 7.22156776 7.22156776 7.22156776 7.22156776 7.22156776 7.22156776 7.22156776 7.22156776 7.22156776 7.22156776 7.22156776 7.22156776 7.22156776 7.22156776 7.22156776 7.22156776 7.22156776 7.22156776 7.22156776 7.22156776 7.22156776 7.22156776 7.22156776 7.22156776 7.22156776 7.22156776 7.22156776 7.22156776 7.22156776 7.22156776 7.22156776 7.22156776 7.22156776 7.22156776 7.22156776 7.22156776 7.22156776 7.22156776 7.22156776 7.22156776 7.22156776 7.22156776 7.22156776 7.22156776 7.22156776 7.22156776 7.22156776 7.22156776 7.22156776 7.22156776 7.22156776 7.22156776 7.22156776 7.22156776 7.22156776 7.22156776 7.22156776 7.22156776 7.22156776 7.22156776 7.22156776 7.22156776 7.22156776 7.22156776 7.22156776 7.22156776 7.22156776 7.22156776 7.22156776 7.22156776 7.22156776 7.22156776 7.22156776 7.22156776 7.22156776 7.22156776 7.22156776 7.22156776 7.22156776 7.22156776 7.22156776 7.22156776 7.22156776 7.22156776 7.22156776 7.22156776 7.22156776 7.22156776 7.22156776 7.22156776 7.22156776 7.22156776 7.22156776 7.22156776 7.22156776 7.22156776 7.22156776 7.22156776 7.22156776 7.22156776 7.22156776 7.22156776 7.22156776 7.22156776 7.22156776 7.22156776 7.22156776 7.22156776 7.22156776 7.22156776 7.22156776 7.22156776 7.22156776 7.22156776 7.22156776 7.22156776 7.22156776 7.22156776 7.22156776 7.22156776 7.22156776 7.22156776 7.22156776 7.22156776 7.22156776 7.22156776 7.22156776 7.22156776 7.22156776 7.22156776 7.22156776 7.22156776 7.22156776 7.22156776 7.22156776 7.22156776 7.22156776 7.22156776 7.22156776 7.22156776 7.22156776 7.22156776 7.22156776 7.22156776 7.22156776 7.22156776 7.22156776 7.22156776 7.22156776 7.22156776 7.22156776 7.22156776 7.22156776 7.22156776 7.22156776 7.22156776 7.22156776 7.22156776 7.22156776 7.22156776 7.22156776 7.22156776 7.22156776 7.22156776 7.22156776 7.22156776 7.22156776 7.22156776 7.22156776 7.22156776 7.22156776 7.22156776 7.22156776 7.22156776 7.22156776 7.22156776 7.22156776 7.22156776 7.22156776 7.22156776 7.22156776 7.22156776 7.22156776 7.22156776 7.22156776 7.22156776 7.22156776 7.22156776 7.22156776 7.22156776 7.22156776 7.22156776 