# vtk DataFile Version 3.0
VTK - Matlab export
ASCII
DATASET STRUCTURED_POINTS
DIMENSIONS 40 40 1
SPACING 1 1 1
ORIGIN 0 0 0
POINT_DATA 1600
SCALARS Proofstrength float 1
LOOKUP_TABLE default
142.25514280 142.25514280 142.25514280 142.25514280 142.25514280 142.25514280 142.25514280 142.25514280 142.25514280 142.25514280 142.25514280 142.25514280 142.25514280 142.25514280 142.25514280 142.25514280 142.25514280 142.25514280 142.25514280 142.25514280 142.25514280 142.25514280 142.25514280 142.25514280 142.25514280 142.25514280 142.25514280 142.25514280 142.25514280 142.25514280 142.25514280 142.25514280 142.25514280 142.25514280 142.25514280 142.25514280 142.25514280 142.25514280 142.25514280 142.25514280 142.25514280 142.25514280 142.25514280 142.25514280 142.25514280 142.25514280 142.25514280 142.25514280 142.25514280 142.25514280 142.25514280 142.25514280 142.25514280 142.25514280 142.25514280 142.25514280 142.25514280 142.25514280 142.25514280 142.25514280 142.25514280 142.25514280 142.25514280 142.25514280 142.25514280 142.25514280 142.25514280 142.25514280 142.25514280 142.25514280 142.25514280 142.25514280 142.25514280 142.25514280 142.25514280 142.25514280 142.25514280 142.25514280 142.25514280 142.25514280 142.25514280 142.25514280 142.25514280 142.25514280 142.25514280 142.25514280 142.25514280 142.25514280 142.25514280 142.25514280 142.25514280 142.25514280 142.25514280 142.25514280 142.25514280 142.25514280 142.25514280 142.25514280 142.25514280 142.25514280 142.25514280 142.25514280 142.25514280 142.25514280 142.25514280 142.25514280 142.25514280 142.25514280 142.25514280 142.25514280 142.25514280 142.25514280 142.25514280 142.25514280 142.25514280 142.25514280 142.25514280 142.25514280 142.25514280 142.25514280 142.25514280 142.25514280 142.25514280 142.25514280 142.25514280 142.25514280 142.25514280 142.25514280 142.25514280 142.25514280 142.25514280 142.25514280 142.25514280 142.25514280 142.25514280 142.25514280 142.25514280 142.25514280 142.25514280 142.25514280 142.25514280 142.25514280 142.25514280 142.25514280 142.25514280 142.25514280 142.25514280 142.25514280 142.25514280 142.25514280 142.25514280 142.25514280 142.25514280 142.25514280 142.25514280 142.25514280 142.25514280 142.25514280 142.25514280 142.25514280 142.25514280 142.25514280 142.25514280 142.25514280 142.25514280 142.25514280 142.25514280 142.25514280 142.25514280 142.25514280 142.25514280 142.25514280 142.25514280 142.25514280 142.25514280 142.25514280 142.25514280 142.25514280 142.25514280 142.25514280 142.25514280 142.25514280 142.25514280 142.25514280 142.25514280 142.25514280 142.25514280 142.25514280 142.25514280 142.25514280 142.25514280 142.25514280 142.25514280 142.25514280 142.25514280 142.25514280 142.25514280 142.25514280 142.25514280 142.25514280 142.25514280 142.25514280 142.25514280 142.25514280 142.25514280 142.25514280 142.25514280 142.25514280 142.25514280 142.25514280 142.25514280 142.25514280 142.25514280 142.25514280 142.25514280 142.25514280 142.25514280 142.25514280 142.25514280 142.25514280 142.25514280 142.25514280 142.25514280 142.25514280 142.25514280 142.25514280 142.25514280 142.25514280 142.25514280 142.25514280 142.25514280 142.25514280 142.25514280 142.25514280 142.25514280 142.25514280 142.25514280 142.25514280 142.25514280 142.25514280 142.25514280 142.25514280 142.25514280 142.25514280 142.25514280 142.25514280 142.25514280 142.25514280 142.25514280 142.25514280 142.25514280 142.25514280 142.25514280 142.25514280 142.25514280 142.25514280 142.25514280 142.25514280 142.25514280 142.25514280 142.25514280 142.25514280 142.25514280 142.25514280 142.25514280 142.25514280 142.25514280 142.25514280 142.25514280 142.25514280 142.25514280 142.25514280 142.25514280 142.25514280 142.25514280 142.25514280 142.25514280 142.25514280 142.25514280 142.25514280 142.25514280 142.25514280 142.25514280 142.25514280 142.25514280 142.25514280 142.25514280 142.25514280 142.25514280 142.25514280 142.25514280 142.25514280 142.25514280 142.25514280 142.25514280 142.25514280 142.25514280 142.25514280 142.25514280 142.25514280 142.25514280 142.25514280 142.25514280 142.25514280 142.25514280 142.25514280 142.25514280 142.25514280 142.25514280 142.25514280 142.25514280 142.25514280 142.25514280 142.25514280 142.25514280 142.25514280 142.25514280 142.25514280 142.25514280 142.25514280 142.25514280 142.25514280 142.25514280 142.25514280 142.25514280 142.25514280 142.25514280 142.25514280 142.25514280 142.25514280 142.25514280 142.25514280 142.25514280 142.25514280 142.25514280 142.25514280 142.25514280 142.25812875 142.25978030 142.26039612 142.26039612 142.25978030 142.25812875 142.25514280 142.25514280 142.25514280 142.25514280 142.25514280 142.25514280 142.25514280 142.25514280 142.25514280 142.25514280 142.25514280 142.25514280 142.25514280 142.25514280 142.25514280 142.25514280 142.25514280 142.25514280 142.25514280 142.25514280 142.25514280 142.25514280 142.25514280 142.25514280 142.25514280 142.25514280 142.25514280 142.25514280 142.25514280 142.25829541 142.26064052 142.26200538 142.26285920 142.26362825 142.26499420 142.26613472 142.26669102 142.26669102 142.26613472 142.26499420 142.26362825 142.26285920 142.26200538 142.26064052 142.25829541 142.25514280 142.25514280 142.25514280 142.25514280 142.25514280 142.25514280 142.25514280 142.25514280 142.25514280 142.25514280 142.25514280 142.25514280 142.25514280 142.25514280 142.25514280 142.25514280 142.25514280 142.25514280 142.25514280 142.25514280 142.25514280 142.25514280 142.25982088 142.26239780 142.26493327 142.26716695 142.26874973 142.26982009 142.27065045 142.27148737 142.27217934 142.27254778 142.27254778 142.27217934 142.27148737 142.27065045 142.26982009 142.26874973 142.26716695 142.26493327 142.26239780 142.25982088 142.25514280 142.25514280 142.25514280 142.25514280 142.25514280 142.25514280 142.25514280 142.25514280 142.25514280 142.25514280 142.25514280 142.25514280 142.25514280 142.25514280 142.25514280 142.25514280 142.25514280 142.25514280 142.25952584 142.26263325 142.26623762 142.26904371 142.27129299 142.27305696 142.27428411 142.27507628 142.27561408 142.27604473 142.27637529 142.27655376 142.27655376 142.27637529 142.27604473 142.27561408 142.27507628 142.27428411 142.27305696 142.27129299 142.26904371 142.26623762 142.26263325 142.25952584 142.25514280 142.25514280 142.25514280 142.25514280 142.25514280 142.25514280 142.25514280 142.25514280 142.25514280 142.25514280 142.25514280 142.25514280 142.25514280 142.25514280 142.25514280 142.26070552 142.26533982 142.26906378 142.27220152 142.27452630 142.27612756 142.27714682 142.27769596 142.27791812 142.27796983 142.27797160 142.27797297 142.27797642 142.27797642 142.27797297 142.27797160 142.27796983 142.27791812 142.27769596 142.27714682 142.27612756 142.27452630 142.27220152 142.26906378 142.26533982 142.26070552 142.25514280 142.25514280 142.25514280 142.25514280 142.25514280 142.25514280 142.25514280 142.25514280 142.25514280 142.25514280 142.25514280 142.25514280 142.25794570 142.26190155 142.26682978 142.27115191 142.27448045 142.27682033 142.27821678 142.27884467 142.27892256 142.27864922 142.27820032 142.27772162 142.27731479 142.27703170 142.27688890 142.27688890 142.27703170 142.27731479 142.27772162 142.27820032 142.27864922 142.27892256 142.27884467 142.27821678 142.27682033 142.27448045 142.27115191 142.26682978 142.26190155 142.25794570 142.25514280 142.25514280 142.25514280 142.25514280 142.25514280 142.25514280 142.25514280 142.25514280 142.25514280 142.25514280 142.26192716 142.26749257 142.27233395 142.27605164 142.27847134 142.27967669 142.27988792 142.27939921 142.27850227 142.27743678 142.27638048 142.27545435 142.27473019 142.27424108 142.27399633 142.27399633 142.27424108 142.27473019 142.27545435 142.27638048 142.27743678 142.27850227 142.27939921 142.27988792 142.27967669 142.27847134 142.27605164 142.27233395 142.26749257 142.26192716 142.25514280 142.25514280 142.25514280 142.25514280 142.25514280 142.25514280 142.25514280 142.25514280 142.25514280 142.26067148 142.26691144 142.27249122 142.27684582 142.27964700 142.28088129 142.28079773 142.27977982 142.27822984 142.27648732 142.27479422 142.27329955 142.27208137 142.27117047 142.27057043 142.27027380 142.27027380 142.27057043 142.27117047 142.27208137 142.27329955 142.27479422 142.27648732 142.27822984 142.27977982 142.28079773 142.28088129 142.27964700 142.27684582 142.27249122 142.26691144 142.26067148 142.25514280 142.25514280 142.25514280 142.25514280 142.25514280 142.25514280 142.25514280 142.25918922 142.26507731 142.27127059 142.27654118 142.28017336 142.28191010 142.28190418 142.28058411 142.27847753 142.27606536 142.27370227 142.27160222 142.26986500 142.26851601 142.26754159 142.26691411 142.26660781 142.26660781 142.26691411 142.26754159 142.26851601 142.26986500 142.27160222 142.27370227 142.27606536 142.27847753 142.28058411 142.28190418 142.28191010 142.28017336 142.27654118 142.27127059 142.26507731 142.25918922 142.25514280 142.25514280 142.25514280 142.25514280 142.25514280 142.25514280 142.26148977 142.26823859 142.27455575 142.27946901 142.28235399 142.28308476 142.28198481 142.27964428 142.27670237 142.27368546 142.27093778 142.26862988 142.26680709 142.26544425 142.26448841 142.26388563 142.26359500 142.26359500 142.26388563 142.26448841 142.26544425 142.26680709 142.26862988 142.27093778 142.27368546 142.27670237 142.27964428 142.28198481 142.28308476 142.28235399 142.27946901 142.27455575 142.26823859 142.26148977 142.25514280 142.25514280 142.25514280 142.25514280 142.25514280 142.25514280 142.26295816 142.27031493 142.27671098 142.28131184 142.28359318 142.28355265 142.28165277 142.27860349 142.27511686 142.27173901 142.26879353 142.26640964 142.26458765 142.26326379 142.26235689 142.26179490 142.26152684 142.26152684 142.26179490 142.26235689 142.26326379 142.26458765 142.26640964 142.26879353 142.27173901 142.27511686 142.27860349 142.28165277 142.28355265 142.28359318 142.28131184 142.27671098 142.27031493 142.26295816 142.25514280 142.25514280 142.25514280 142.25514280 142.25514280 142.25750523 142.26416295 142.27144099 142.27778856 142.28219158 142.28413470 142.28367797 142.28135930 142.27795133 142.27420109 142.27066051 142.26763804 142.26523822 142.26343625 142.26214778 142.26127713 142.26074323 142.26049026 142.26049026 142.26074323 142.26127713 142.26214778 142.26343625 142.26523822 142.26763804 142.27066051 142.27420109 142.27795133 142.28135930 142.28367797 142.28413470 142.28219158 142.27778856 142.27144099 142.26416295 142.25750523 142.25514280 142.25514280 142.25514280 142.25514280 142.25750523 142.26416295 142.27144099 142.27778856 142.28219158 142.28413470 142.28367797 142.28135930 142.27795133 142.27420109 142.27066051 142.26763804 142.26523822 142.26343625 142.26214778 142.26127713 142.26074323 142.26049026 142.26049026 142.26074323 142.26127713 142.26214778 142.26343625 142.26523822 142.26763804 142.27066051 142.27420109 142.27795133 142.28135930 142.28367797 142.28413470 142.28219158 142.27778856 142.27144099 142.26416295 142.25750523 142.25514280 142.25514280 142.25514280 142.25514280 142.25514280 142.26295816 142.27031493 142.27671098 142.28131184 142.28359318 142.28355265 142.28165277 142.27860349 142.27511686 142.27173901 142.26879353 142.26640964 142.26458765 142.26326379 142.26235689 142.26179490 142.26152684 142.26152684 142.26179490 142.26235689 142.26326379 142.26458765 142.26640964 142.26879353 142.27173901 142.27511686 142.27860349 142.28165277 142.28355265 142.28359318 142.28131184 142.27671098 142.27031493 142.26295816 142.25514280 142.25514280 142.25514280 142.25514280 142.25514280 142.25514280 142.26148977 142.26823859 142.27455575 142.27946901 142.28235399 142.28308476 142.28198481 142.27964428 142.27670237 142.27368546 142.27093778 142.26862988 142.26680709 142.26544425 142.26448841 142.26388563 142.26359500 142.26359500 142.26388563 142.26448841 142.26544425 142.26680709 142.26862988 142.27093778 142.27368546 142.27670237 142.27964428 142.28198481 142.28308476 142.28235399 142.27946901 142.27455575 142.26823859 142.26148977 142.25514280 142.25514280 142.25514280 142.25514280 142.25514280 142.25514280 142.25918922 142.26507731 142.27127059 142.27654118 142.28017336 142.28191010 142.28190418 142.28058411 142.27847753 142.27606536 142.27370227 142.27160222 142.26986500 142.26851601 142.26754159 142.26691411 142.26660781 142.26660781 142.26691411 142.26754159 142.26851601 142.26986500 142.27160222 142.27370227 142.27606536 142.27847753 142.28058411 142.28190418 142.28191010 142.28017336 142.27654118 142.27127059 142.26507731 142.25918922 142.25514280 142.25514280 142.25514280 142.25514280 142.25514280 142.25514280 142.25514280 142.26067148 142.26691144 142.27249122 142.27684582 142.27964700 142.28088129 142.28079773 142.27977982 142.27822984 142.27648732 142.27479422 142.27329955 142.27208137 142.27117047 142.27057043 142.27027380 142.27027380 142.27057043 142.27117047 142.27208137 142.27329955 142.27479422 142.27648732 142.27822984 142.27977982 142.28079773 142.28088129 142.27964700 142.27684582 142.27249122 142.26691144 142.26067148 142.25514280 142.25514280 142.25514280 142.25514280 142.25514280 142.25514280 142.25514280 142.25514280 142.25514280 142.26192716 142.26749257 142.27233395 142.27605164 142.27847134 142.27967669 142.27988792 142.27939921 142.27850227 142.27743678 142.27638048 142.27545435 142.27473019 142.27424108 142.27399633 142.27399633 142.27424108 142.27473019 142.27545435 142.27638048 142.27743678 142.27850227 142.27939921 142.27988792 142.27967669 142.27847134 142.27605164 142.27233395 142.26749257 142.26192716 142.25514280 142.25514280 142.25514280 142.25514280 142.25514280 142.25514280 142.25514280 142.25514280 142.25514280 142.25514280 142.25794570 142.26190155 142.26682978 142.27115191 142.27448045 142.27682033 142.27821678 142.27884467 142.27892256 142.27864922 142.27820032 142.27772162 142.27731479 142.27703170 142.27688890 142.27688890 142.27703170 142.27731479 142.27772162 142.27820032 142.27864922 142.27892256 142.27884467 142.27821678 142.27682033 142.27448045 142.27115191 142.26682978 142.26190155 142.25794570 142.25514280 142.25514280 142.25514280 142.25514280 142.25514280 142.25514280 142.25514280 142.25514280 142.25514280 142.25514280 142.25514280 142.25514280 142.26070552 142.26533982 142.26906378 142.27220152 142.27452630 142.27612756 142.27714682 142.27769596 142.27791812 142.27796983 142.27797160 142.27797297 142.27797642 142.27797642 142.27797297 142.27797160 142.27796983 142.27791812 142.27769596 142.27714682 142.27612756 142.27452630 142.27220152 142.26906378 142.26533982 142.26070552 142.25514280 142.25514280 142.25514280 142.25514280 142.25514280 142.25514280 142.25514280 142.25514280 142.25514280 142.25514280 142.25514280 142.25514280 142.25514280 142.25514280 142.25514280 142.25952584 142.26263325 142.26623762 142.26904371 142.27129299 142.27305696 142.27428411 142.27507628 142.27561408 142.27604473 142.27637529 142.27655376 142.27655376 142.27637529 142.27604473 142.27561408 142.27507628 142.27428411 142.27305696 142.27129299 142.26904371 142.26623762 142.26263325 142.25952584 142.25514280 142.25514280 142.25514280 142.25514280 142.25514280 142.25514280 142.25514280 142.25514280 142.25514280 142.25514280 142.25514280 142.25514280 142.25514280 142.25514280 142.25514280 142.25514280 142.25514280 142.25514280 142.25982088 142.26239780 142.26493327 142.26716695 142.26874973 142.26982009 142.27065045 142.27148737 142.27217934 142.27254778 142.27254778 142.27217934 142.27148737 142.27065045 142.26982009 142.26874973 142.26716695 142.26493327 142.26239780 142.25982088 142.25514280 142.25514280 142.25514280 142.25514280 142.25514280 142.25514280 142.25514280 142.25514280 142.25514280 142.25514280 142.25514280 142.25514280 142.25514280 142.25514280 142.25514280 142.25514280 142.25514280 142.25514280 142.25514280 142.25514280 142.25514280 142.25514280 142.25829541 142.26064052 142.26200538 142.26285920 142.26362825 142.26499420 142.26613472 142.26669102 142.26669102 142.26613472 142.26499420 142.26362825 142.26285920 142.26200538 142.26064052 142.25829541 142.25514280 142.25514280 142.25514280 142.25514280 142.25514280 142.25514280 142.25514280 142.25514280 142.25514280 142.25514280 142.25514280 142.25514280 142.25514280 142.25514280 142.25514280 142.25514280 142.25514280 142.25514280 142.25514280 142.25514280 142.25514280 142.25514280 142.25514280 142.25514280 142.25514280 142.25514280 142.25514280 142.25514280 142.25514280 142.25812875 142.25978030 142.26039612 142.26039612 142.25978030 142.25812875 142.25514280 142.25514280 142.25514280 142.25514280 142.25514280 142.25514280 142.25514280 142.25514280 142.25514280 142.25514280 142.25514280 142.25514280 142.25514280 142.25514280 142.25514280 142.25514280 142.25514280 142.25514280 142.25514280 142.25514280 142.25514280 142.25514280 142.25514280 142.25514280 142.25514280 142.25514280 142.25514280 142.25514280 142.25514280 142.25514280 142.25514280 142.25514280 142.25514280 142.25514280 142.25514280 142.25514280 142.25514280 142.25514280 142.25514280 142.25514280 142.25514280 142.25514280 142.25514280 142.25514280 142.25514280 142.25514280 142.25514280 142.25514280 142.25514280 142.25514280 142.25514280 142.25514280 142.25514280 142.25514280 142.25514280 142.25514280 142.25514280 142.25514280 142.25514280 142.25514280 142.25514280 142.25514280 142.25514280 142.25514280 142.25514280 142.25514280 142.25514280 142.25514280 142.25514280 142.25514280 142.25514280 142.25514280 142.25514280 142.25514280 142.25514280 142.25514280 142.25514280 142.25514280 142.25514280 142.25514280 142.25514280 142.25514280 142.25514280 142.25514280 142.25514280 142.25514280 142.25514280 142.25514280 142.25514280 142.25514280 142.25514280 142.25514280 142.25514280 142.25514280 142.25514280 142.25514280 142.25514280 142.25514280 142.25514280 142.25514280 142.25514280 142.25514280 142.25514280 142.25514280 142.25514280 142.25514280 142.25514280 142.25514280 142.25514280 142.25514280 142.25514280 142.25514280 142.25514280 142.25514280 142.25514280 142.25514280 142.25514280 142.25514280 142.25514280 142.25514280 142.25514280 142.25514280 142.25514280 142.25514280 142.25514280 142.25514280 142.25514280 142.25514280 142.25514280 142.25514280 142.25514280 142.25514280 142.25514280 142.25514280 142.25514280 142.25514280 142.25514280 142.25514280 142.25514280 142.25514280 142.25514280 142.25514280 142.25514280 142.25514280 142.25514280 142.25514280 142.25514280 142.25514280 142.25514280 142.25514280 142.25514280 142.25514280 142.25514280 142.25514280 142.25514280 142.25514280 142.25514280 142.25514280 142.25514280 142.25514280 142.25514280 142.25514280 142.25514280 142.25514280 142.25514280 142.25514280 142.25514280 142.25514280 142.25514280 142.25514280 142.25514280 142.25514280 142.25514280 142.25514280 142.25514280 142.25514280 142.25514280 142.25514280 142.25514280 142.25514280 142.25514280 142.25514280 142.25514280 142.25514280 142.25514280 142.25514280 142.25514280 142.25514280 142.25514280 142.25514280 142.25514280 142.25514280 142.25514280 142.25514280 142.25514280 142.25514280 142.25514280 142.25514280 142.25514280 142.25514280 142.25514280 142.25514280 142.25514280 142.25514280 142.25514280 142.25514280 142.25514280 142.25514280 142.25514280 142.25514280 142.25514280 142.25514280 142.25514280 142.25514280 142.25514280 142.25514280 142.25514280 142.25514280 142.25514280 142.25514280 142.25514280 142.25514280 142.25514280 142.25514280 142.25514280 142.25514280 142.25514280 142.25514280 142.25514280 142.25514280 142.25514280 142.25514280 142.25514280 142.25514280 142.25514280 142.25514280 142.25514280 142.25514280 142.25514280 142.25514280 142.25514280 142.25514280 142.25514280 142.25514280 142.25514280 142.25514280 142.25514280 142.25514280 142.25514280 142.25514280 142.25514280 142.25514280 142.25514280 142.25514280 142.25514280 142.25514280 142.25514280 142.25514280 142.25514280 142.25514280 142.25514280 142.25514280 142.25514280 142.25514280 142.25514280 142.25514280 142.25514280 142.25514280 142.25514280 142.25514280 142.25514280 142.25514280 142.25514280 142.25514280 142.25514280 142.25514280 142.25514280 142.25514280 142.25514280 142.25514280 142.25514280 142.25514280 142.25514280 142.25514280 142.25514280 142.25514280 142.25514280 142.25514280 142.25514280 142.25514280 142.25514280 142.25514280 142.25514280 142.25514280 142.25514280 142.25514280 142.25514280 142.25514280 142.25514280 142.25514280 142.25514280 142.25514280 142.25514280 142.25514280 142.25514280 142.25514280 142.25514280 142.25514280 142.25514280 142.25514280 142.25514280 142.25514280 142.25514280 142.25514280 142.25514280 142.25514280 142.25514280 142.25514280 142.25514280 142.25514280 142.25514280 142.25514280 142.25514280 142.25514280 142.25514280 142.25514280 142.25514280 142.25514280 142.25514280 142.25514280 142.25514280 142.25514280 142.25514280 142.25514280 142.25514280 142.25514280 142.25514280 