# vtk DataFile Version 3.0
VTK - Matlab export
ASCII
DATASET STRUCTURED_POINTS
DIMENSIONS 40 40 1
SPACING 1 1 1
ORIGIN 0 0 0
POINT_DATA 1600
SCALARS Temperature float 1
LOOKUP_TABLE default
300.00000000 300.00000000 300.00000000 300.00000000 300.00000000 300.00000000 300.00000000 300.00000000 300.00000000 300.00000000 300.00000000 300.00000000 300.00000000 300.00000000 300.00000000 300.00000000 300.00000000 300.00000000 300.00000000 300.00000000 300.00000000 300.00000000 300.00000000 300.00000000 300.00000000 300.00000000 300.00000000 300.00000000 300.00000000 300.00000000 300.00000000 300.00000000 300.00000000 300.00000000 300.00000000 300.00000000 300.00000000 300.00000000 300.00000000 300.00000000 300.00000000 300.00000000 300.00000000 300.00000000 300.00000000 300.00000000 300.00000000 300.00000000 300.00000000 300.00000000 300.00000000 300.00000000 300.00000000 300.00000000 300.00000000 300.00000000 300.00000000 300.00000000 300.00000000 300.00000000 300.00000000 300.00000000 300.00000000 300.00000000 300.00000000 300.00000000 300.00000000 300.00000000 300.00000000 300.00000000 300.00000000 300.00000000 300.00000000 300.00000000 300.00000000 300.00000000 300.00000000 300.00000000 300.00000000 300.00000000 300.00000000 300.00000000 300.00000000 300.00000000 300.00000000 300.00000000 300.00000000 300.00000000 300.00000000 300.00000000 300.00000000 300.00000000 300.00000000 300.00000000 300.00000000 300.00000000 300.00000000 300.00000000 300.00000000 300.00000000 300.00000000 300.00000000 300.00000000 300.00000000 300.00000000 300.00000000 300.00000000 300.00000000 300.00000000 300.00000000 300.00000000 300.00000000 300.00000000 300.00000000 300.00000000 300.00000000 300.00000000 300.00000000 300.00000000 300.00000000 300.00000000 300.00000000 300.00000000 300.00000000 300.00000000 300.00000000 300.00000000 300.00000000 300.00000000 300.00000000 300.00000000 300.00000000 300.00000000 300.00000000 300.00000000 300.00000000 300.00000000 300.00000000 300.00000000 300.00000000 300.00000000 300.00000000 300.00000000 300.00000000 300.00000000 300.00000000 300.00000000 300.00000000 300.00000000 300.00000000 300.00000000 300.00000000 300.00000000 300.00000000 300.00000000 300.00000000 300.00000000 300.00000000 300.00000000 300.00000000 300.00000000 300.00000000 300.00000000 300.00000000 300.00000000 300.00000000 300.00000000 300.00000000 300.00000000 300.00000000 300.00000000 300.00000000 300.00000000 300.00000000 300.00000000 300.00000000 300.00000000 300.00000000 300.00000000 300.00000000 300.00000000 300.00000000 300.00000000 300.00000000 300.00000000 300.00000000 300.00000000 300.00000000 300.00000000 300.00000000 300.00000000 300.00000000 300.00000000 300.00000000 300.00000000 300.00000000 300.00000000 300.00000000 300.00000000 300.00000000 300.00000000 300.00000000 300.00000000 300.00000000 300.00000000 300.00000000 300.00000000 300.00000000 300.00000000 300.00000000 300.00000000 300.00000000 300.00000000 300.00000000 300.00000000 300.00000000 300.00000000 300.00000000 300.00000000 300.00000000 300.00000000 300.00000000 300.00000000 300.00000000 300.00000000 300.00000000 300.00000000 300.00000000 300.00000000 300.00000000 300.00000000 300.00000000 300.00000000 300.00000000 300.00000000 300.00000000 300.00000000 300.00000000 300.00000000 300.00000000 300.00000000 300.00000000 300.00000000 300.00000000 300.00000000 300.00000000 300.00000000 300.00000000 300.00000000 300.00000000 300.00000000 300.00000000 300.00000000 300.00000000 300.00000000 300.00000000 300.00000000 300.00000000 300.00000000 300.00000000 300.00000000 300.00000000 300.00000000 300.00000000 300.00000000 300.00000000 300.00000000 300.00000000 300.00000000 300.00000000 300.00000000 300.00000000 300.00000000 300.00000000 300.00000000 300.00000000 300.00000000 300.00000000 300.00000000 300.00000000 300.00000000 300.00000000 300.00000000 300.00000000 300.00000000 300.00000000 300.00000000 300.00000000 300.00000000 300.00000000 300.00000000 300.00000000 300.00000000 300.00000000 300.00000000 300.00000000 300.00000000 300.00000000 300.00000000 300.00000000 300.00000000 300.00000000 300.00000000 300.00000000 300.00000000 300.00000000 300.00000000 300.00000000 300.00000000 300.00000000 300.00000000 300.00000000 300.00000000 300.00000000 300.00000000 300.00000000 300.00000000 300.00000000 300.00000000 300.00000000 300.00000000 300.00000000 300.00000000 300.00000000 300.00000000 300.00000000 300.00000000 300.00000000 300.00000000 300.00000000 300.00000000 300.00000000 300.00000000 300.00000000 300.00000000 300.00000000 300.00000000 328.17924156 343.47839190 349.11592641 349.11592641 343.47839190 328.17924156 300.00000000 300.00000000 300.00000000 300.00000000 300.00000000 300.00000000 300.00000000 300.00000000 300.00000000 300.00000000 300.00000000 300.00000000 300.00000000 300.00000000 300.00000000 300.00000000 300.00000000 300.00000000 300.00000000 300.00000000 300.00000000 300.00000000 300.00000000 300.00000000 300.00000000 300.00000000 300.00000000 300.00000000 300.00000000 328.82702019 350.69929285 364.13911193 373.22596519 381.51981670 395.00911783 405.98352023 411.29914833 411.29914833 405.98352023 395.00911783 381.51981670 373.22596519 364.13911193 350.69929285 328.82702019 300.00000000 300.00000000 300.00000000 300.00000000 300.00000000 300.00000000 300.00000000 300.00000000 300.00000000 300.00000000 300.00000000 300.00000000 300.00000000 300.00000000 300.00000000 300.00000000 300.00000000 300.00000000 300.00000000 300.00000000 300.00000000 300.00000000 341.88708878 366.05054118 390.81335789 413.64475310 431.22754837 444.42936041 455.20747526 465.36973355 473.34440967 477.51878669 477.51878669 473.34440967 465.36973355 455.20747526 444.42936041 431.22754837 413.64475310 390.81335789 366.05054118 341.88708878 300.00000000 300.00000000 300.00000000 300.00000000 300.00000000 300.00000000 300.00000000 300.00000000 300.00000000 300.00000000 300.00000000 300.00000000 300.00000000 300.00000000 300.00000000 300.00000000 300.00000000 300.00000000 338.08375464 366.50213582 400.85131842 429.91809920 455.54344371 477.83858548 495.79604299 509.71052260 520.57734267 529.22423769 535.44204705 538.67626911 538.67626911 535.44204705 529.22423769 520.57734267 509.71052260 495.79604299 477.83858548 455.54344371 429.91809920 400.85131842 366.50213582 338.08375464 300.00000000 300.00000000 300.00000000 300.00000000 300.00000000 300.00000000 300.00000000 300.00000000 300.00000000 300.00000000 300.00000000 300.00000000 300.00000000 300.00000000 300.00000000 347.54135432 389.32074384 426.05027762 460.44958435 490.15104602 515.18519162 535.87665761 552.32341692 564.99092316 574.59898962 581.73900590 586.58178378 589.04162353 589.04162353 586.58178378 581.73900590 574.59898962 564.99092316 552.32341692 535.87665761 515.18519162 490.15104602 460.44958435 426.05027762 389.32074384 347.54135432 300.00000000 300.00000000 300.00000000 300.00000000 300.00000000 300.00000000 300.00000000 300.00000000 300.00000000 300.00000000 300.00000000 300.00000000 322.67291745 356.09049387 400.24664606 443.02997090 481.44405658 514.99323374 543.01618825 565.71280153 583.67323017 597.52016375 607.94260011 615.63125081 621.12583893 624.71681548 626.50205382 626.50205382 624.71681548 621.12583893 615.63125081 607.94260011 597.52016375 583.67323017 565.71280153 543.01618825 514.99323374 481.44405658 443.02997090 400.24664606 356.09049387 322.67291745 300.00000000 300.00000000 300.00000000 300.00000000 300.00000000 300.00000000 300.00000000 300.00000000 300.00000000 300.00000000 354.65609703 402.74165614 449.67102937 492.74549034 530.11378091 561.18015089 586.01442284 605.26598270 619.84843109 630.67521866 638.57106986 644.22499339 648.14332685 650.63501516 651.85217306 651.85217306 650.63501516 648.14332685 644.22499339 638.57106986 630.67521866 619.84843109 605.26598270 586.01442284 561.18015089 530.11378091 492.74549034 449.67102937 402.74165614 354.65609703 300.00000000 300.00000000 300.00000000 300.00000000 300.00000000 300.00000000 300.00000000 300.00000000 300.00000000 343.01525502 394.39028542 445.48644162 493.24861026 535.17680929 569.96761071 597.50802239 618.47150442 633.95295068 645.13936030 653.09545023 658.68417676 662.55610189 665.16177848 666.77947322 667.55757834 667.55757834 666.77947322 665.16177848 662.55610189 658.68417676 653.09545023 645.13936030 633.95295068 618.47150442 597.50802239 569.96761071 535.17680929 493.24861026 445.48644162 394.39028542 343.01525502 300.00000000 300.00000000 300.00000000 300.00000000 300.00000000 300.00000000 300.00000000 330.48921184 376.69710859 429.46897177 481.67002161 528.92417238 568.74076016 600.29975118 624.06576286 641.24094234 653.27619665 661.53590635 667.13372477 670.89980672 673.41327573 675.05271606 676.04640688 676.51721690 676.51721690 676.04640688 675.05271606 673.41327573 670.89980672 667.13372477 661.53590635 653.27619665 641.24094234 624.06576286 600.29975118 568.74076016 528.92417238 481.67002161 429.46897177 376.69710859 330.48921184 300.00000000 300.00000000 300.00000000 300.00000000 300.00000000 300.00000000 347.62655094 400.91120073 456.51724630 509.40041392 555.62475939 593.10659822 621.56275227 641.99399237 656.01969564 665.33333651 671.38627568 675.27734545 677.77064073 679.36519879 680.36946614 680.96250421 681.23902504 681.23902504 680.96250421 680.36946614 679.36519879 677.77064073 675.27734545 671.38627568 665.33333651 656.01969564 641.99399237 621.56275227 593.10659822 555.62475939 509.40041392 456.51724630 400.91120073 347.62655094 300.00000000 300.00000000 300.00000000 300.00000000 300.00000000 300.00000000 358.53566572 416.95298411 474.74296769 527.95809650 573.16935667 608.72909782 634.80919603 652.81339911 664.64154039 672.12709065 676.74972008 679.57063680 681.28957787 682.34000232 682.97694590 683.34263199 683.51025022 683.51025022 683.34263199 682.97694590 682.34000232 681.28957787 679.57063680 676.74972008 672.12709065 664.64154039 652.81339911 634.80919603 608.72909782 573.16935667 527.95809650 474.74296769 416.95298411 358.53566572 300.00000000 300.00000000 300.00000000 300.00000000 300.00000000 317.41183277 367.39680047 425.65921321 484.01950125 537.23841860 581.81871555 616.30386800 641.10874849 657.84812833 668.56003719 675.13912979 679.06885519 681.38278708 682.74247226 683.54522224 684.01773579 684.28299062 684.40291378 684.40291378 684.28299062 684.01773579 683.54522224 682.74247226 681.38278708 679.06885519 675.13912979 668.56003719 657.84812833 641.10874849 616.30386800 581.81871555 537.23841860 484.01950125 425.65921321 367.39680047 317.41183277 300.00000000 300.00000000 300.00000000 300.00000000 317.41183277 367.39680047 425.65921321 484.01950125 537.23841860 581.81871555 616.30386800 641.10874849 657.84812833 668.56003719 675.13912979 679.06885519 681.38278708 682.74247226 683.54522224 684.01773579 684.28299062 684.40291378 684.40291378 684.28299062 684.01773579 683.54522224 682.74247226 681.38278708 679.06885519 675.13912979 668.56003719 657.84812833 641.10874849 616.30386800 581.81871555 537.23841860 484.01950125 425.65921321 367.39680047 317.41183277 300.00000000 300.00000000 300.00000000 300.00000000 300.00000000 358.53566572 416.95298411 474.74296769 527.95809650 573.16935667 608.72909782 634.80919603 652.81339911 664.64154039 672.12709065 676.74972008 679.57063680 681.28957787 682.34000232 682.97694590 683.34263199 683.51025022 683.51025022 683.34263199 682.97694590 682.34000232 681.28957787 679.57063680 676.74972008 672.12709065 664.64154039 652.81339911 634.80919603 608.72909782 573.16935667 527.95809650 474.74296769 416.95298411 358.53566572 300.00000000 300.00000000 300.00000000 300.00000000 300.00000000 300.00000000 347.62655094 400.91120073 456.51724630 509.40041392 555.62475939 593.10659822 621.56275227 641.99399237 656.01969564 665.33333651 671.38627568 675.27734545 677.77064073 679.36519879 680.36946614 680.96250421 681.23902504 681.23902504 680.96250421 680.36946614 679.36519879 677.77064073 675.27734545 671.38627568 665.33333651 656.01969564 641.99399237 621.56275227 593.10659822 555.62475939 509.40041392 456.51724630 400.91120073 347.62655094 300.00000000 300.00000000 300.00000000 300.00000000 300.00000000 300.00000000 330.48921184 376.69710859 429.46897177 481.67002161 528.92417238 568.74076016 600.29975118 624.06576286 641.24094234 653.27619665 661.53590635 667.13372477 670.89980672 673.41327573 675.05271606 676.04640688 676.51721690 676.51721690 676.04640688 675.05271606 673.41327573 670.89980672 667.13372477 661.53590635 653.27619665 641.24094234 624.06576286 600.29975118 568.74076016 528.92417238 481.67002161 429.46897177 376.69710859 330.48921184 300.00000000 300.00000000 300.00000000 300.00000000 300.00000000 300.00000000 300.00000000 343.01525502 394.39028542 445.48644162 493.24861026 535.17680929 569.96761071 597.50802239 618.47150442 633.95295068 645.13936030 653.09545023 658.68417676 662.55610189 665.16177848 666.77947322 667.55757834 667.55757834 666.77947322 665.16177848 662.55610189 658.68417676 653.09545023 645.13936030 633.95295068 618.47150442 597.50802239 569.96761071 535.17680929 493.24861026 445.48644162 394.39028542 343.01525502 300.00000000 300.00000000 300.00000000 300.00000000 300.00000000 300.00000000 300.00000000 300.00000000 300.00000000 354.65609703 402.74165614 449.67102937 492.74549034 530.11378091 561.18015089 586.01442284 605.26598270 619.84843109 630.67521866 638.57106986 644.22499339 648.14332685 650.63501516 651.85217306 651.85217306 650.63501516 648.14332685 644.22499339 638.57106986 630.67521866 619.84843109 605.26598270 586.01442284 561.18015089 530.11378091 492.74549034 449.67102937 402.74165614 354.65609703 300.00000000 300.00000000 300.00000000 300.00000000 300.00000000 300.00000000 300.00000000 300.00000000 300.00000000 300.00000000 322.67291745 356.09049387 400.24664606 443.02997090 481.44405658 514.99323374 543.01618825 565.71280153 583.67323017 597.52016375 607.94260011 615.63125081 621.12583893 624.71681548 626.50205382 626.50205382 624.71681548 621.12583893 615.63125081 607.94260011 597.52016375 583.67323017 565.71280153 543.01618825 514.99323374 481.44405658 443.02997090 400.24664606 356.09049387 322.67291745 300.00000000 300.00000000 300.00000000 300.00000000 300.00000000 300.00000000 300.00000000 300.00000000 300.00000000 300.00000000 300.00000000 300.00000000 347.54135432 389.32074384 426.05027762 460.44958435 490.15104602 515.18519162 535.87665761 552.32341692 564.99092316 574.59898962 581.73900590 586.58178378 589.04162353 589.04162353 586.58178378 581.73900590 574.59898962 564.99092316 552.32341692 535.87665761 515.18519162 490.15104602 460.44958435 426.05027762 389.32074384 347.54135432 300.00000000 300.00000000 300.00000000 300.00000000 300.00000000 300.00000000 300.00000000 300.00000000 300.00000000 300.00000000 300.00000000 300.00000000 300.00000000 300.00000000 300.00000000 338.08375464 366.50213582 400.85131842 429.91809920 455.54344371 477.83858548 495.79604299 509.71052260 520.57734267 529.22423769 535.44204705 538.67626911 538.67626911 535.44204705 529.22423769 520.57734267 509.71052260 495.79604299 477.83858548 455.54344371 429.91809920 400.85131842 366.50213582 338.08375464 300.00000000 300.00000000 300.00000000 300.00000000 300.00000000 300.00000000 300.00000000 300.00000000 300.00000000 300.00000000 300.00000000 300.00000000 300.00000000 300.00000000 300.00000000 300.00000000 300.00000000 300.00000000 341.88708878 366.05054118 390.81335789 413.64475310 431.22754837 444.42936041 455.20747526 465.36973355 473.34440967 477.51878669 477.51878669 473.34440967 465.36973355 455.20747526 444.42936041 431.22754837 413.64475310 390.81335789 366.05054118 341.88708878 300.00000000 300.00000000 300.00000000 300.00000000 300.00000000 300.00000000 300.00000000 300.00000000 300.00000000 300.00000000 300.00000000 300.00000000 300.00000000 300.00000000 300.00000000 300.00000000 300.00000000 300.00000000 300.00000000 300.00000000 300.00000000 300.00000000 328.82702019 350.69929285 364.13911193 373.22596519 381.51981670 395.00911783 405.98352023 411.29914833 411.29914833 405.98352023 395.00911783 381.51981670 373.22596519 364.13911193 350.69929285 328.82702019 300.00000000 300.00000000 300.00000000 300.00000000 300.00000000 300.00000000 300.00000000 300.00000000 300.00000000 300.00000000 300.00000000 300.00000000 300.00000000 300.00000000 300.00000000 300.00000000 300.00000000 300.00000000 300.00000000 300.00000000 300.00000000 300.00000000 300.00000000 300.00000000 300.00000000 300.00000000 300.00000000 300.00000000 300.00000000 328.17924156 343.47839190 349.11592641 349.11592641 343.47839190 328.17924156 300.00000000 300.00000000 300.00000000 300.00000000 300.00000000 300.00000000 300.00000000 300.00000000 300.00000000 300.00000000 300.00000000 300.00000000 300.00000000 300.00000000 300.00000000 300.00000000 300.00000000 300.00000000 300.00000000 300.00000000 300.00000000 300.00000000 300.00000000 300.00000000 300.00000000 300.00000000 300.00000000 300.00000000 300.00000000 300.00000000 300.00000000 300.00000000 300.00000000 300.00000000 300.00000000 300.00000000 300.00000000 300.00000000 300.00000000 300.00000000 300.00000000 300.00000000 300.00000000 300.00000000 300.00000000 300.00000000 300.00000000 300.00000000 300.00000000 300.00000000 300.00000000 300.00000000 300.00000000 300.00000000 300.00000000 300.00000000 300.00000000 300.00000000 300.00000000 300.00000000 300.00000000 300.00000000 300.00000000 300.00000000 300.00000000 300.00000000 300.00000000 300.00000000 300.00000000 300.00000000 300.00000000 300.00000000 300.00000000 300.00000000 300.00000000 300.00000000 300.00000000 300.00000000 300.00000000 300.00000000 300.00000000 300.00000000 300.00000000 300.00000000 300.00000000 300.00000000 300.00000000 300.00000000 300.00000000 300.00000000 300.00000000 300.00000000 300.00000000 300.00000000 300.00000000 300.00000000 300.00000000 300.00000000 300.00000000 300.00000000 300.00000000 300.00000000 300.00000000 300.00000000 300.00000000 300.00000000 300.00000000 300.00000000 300.00000000 300.00000000 300.00000000 300.00000000 300.00000000 300.00000000 300.00000000 300.00000000 300.00000000 300.00000000 300.00000000 300.00000000 300.00000000 300.00000000 300.00000000 300.00000000 300.00000000 300.00000000 300.00000000 300.00000000 300.00000000 300.00000000 300.00000000 300.00000000 300.00000000 300.00000000 300.00000000 300.00000000 300.00000000 300.00000000 300.00000000 300.00000000 300.00000000 300.00000000 300.00000000 300.00000000 300.00000000 300.00000000 300.00000000 300.00000000 300.00000000 300.00000000 300.00000000 300.00000000 300.00000000 300.00000000 300.00000000 300.00000000 300.00000000 300.00000000 300.00000000 300.00000000 300.00000000 300.00000000 300.00000000 300.00000000 300.00000000 300.00000000 300.00000000 300.00000000 300.00000000 300.00000000 300.00000000 300.00000000 300.00000000 300.00000000 300.00000000 300.00000000 300.00000000 300.00000000 300.00000000 300.00000000 300.00000000 300.00000000 300.00000000 300.00000000 300.00000000 300.00000000 300.00000000 300.00000000 300.00000000 300.00000000 300.00000000 300.00000000 300.00000000 300.00000000 300.00000000 300.00000000 300.00000000 300.00000000 300.00000000 300.00000000 300.00000000 300.00000000 300.00000000 300.00000000 300.00000000 300.00000000 300.00000000 300.00000000 300.00000000 300.00000000 300.00000000 300.00000000 300.00000000 300.00000000 300.00000000 300.00000000 300.00000000 300.00000000 300.00000000 300.00000000 300.00000000 300.00000000 300.00000000 300.00000000 300.00000000 300.00000000 300.00000000 300.00000000 300.00000000 300.00000000 300.00000000 300.00000000 300.00000000 300.00000000 300.00000000 300.00000000 300.00000000 300.00000000 300.00000000 300.00000000 300.00000000 300.00000000 300.00000000 300.00000000 300.00000000 300.00000000 300.00000000 300.00000000 300.00000000 300.00000000 300.00000000 300.00000000 300.00000000 300.00000000 300.00000000 300.00000000 300.00000000 300.00000000 300.00000000 300.00000000 300.00000000 300.00000000 300.00000000 300.00000000 300.00000000 300.00000000 300.00000000 300.00000000 300.00000000 300.00000000 300.00000000 300.00000000 300.00000000 300.00000000 300.00000000 300.00000000 300.00000000 300.00000000 300.00000000 300.00000000 300.00000000 300.00000000 300.00000000 300.00000000 300.00000000 300.00000000 300.00000000 300.00000000 300.00000000 300.00000000 300.00000000 300.00000000 300.00000000 300.00000000 300.00000000 300.00000000 300.00000000 300.00000000 300.00000000 300.00000000 300.00000000 300.00000000 300.00000000 300.00000000 300.00000000 300.00000000 300.00000000 300.00000000 300.00000000 300.00000000 300.00000000 300.00000000 300.00000000 300.00000000 300.00000000 300.00000000 300.00000000 300.00000000 300.00000000 300.00000000 300.00000000 300.00000000 300.00000000 300.00000000 300.00000000 300.00000000 300.00000000 300.00000000 300.00000000 300.00000000 300.00000000 300.00000000 300.00000000 300.00000000 300.00000000 300.00000000 300.00000000 