# vtk DataFile Version 3.0
VTK - Matlab export
ASCII
DATASET STRUCTURED_POINTS
DIMENSIONS 40 40 1
SPACING 1 1 1
ORIGIN 0 0 0
POINT_DATA 1600
SCALARS lambda-2 float 1
LOOKUP_TABLE default
7.22156776 7.22156776 7.22156776 7.22156776 7.22156776 7.22156776 7.22156776 7.22156776 7.22156776 7.22156776 7.22156776 7.22156776 7.22156776 7.22156776 7.22156776 7.22156776 7.22156776 7.22156776 7.22156776 7.22156776 7.22156776 7.22156776 7.22156776 7.22156776 7.22156776 7.22156776 7.22156776 7.22156776 7.22156776 7.22156776 7.22156776 7.22156776 7.22156776 7.22156776 7.22156776 7.22156776 7.22156776 7.22156776 7.22156776 7.22156776 7.22156776 7.22156776 7.22156776 7.22156776 7.22156776 7.22156776 7.22156776 7.22156776 7.22156776 7.22156776 7.22156776 7.22156776 7.22156776 7.22156776 7.22156776 7.22156776 7.22156776 7.22156776 7.22156776 7.22156776 7.22156776 7.22156776 7.22156776 7.22156776 7.22156776 7.22156776 7.22156776 7.22156776 7.22156776 7.22156776 7.22156776 7.22156776 7.22156776 7.22156776 7.22156776 7.22156776 7.22156776 7.22156776 7.22156776 7.22156776 7.22156776 7.22156776 7.22156776 7.22156776 7.22156776 7.22156776 7.22156776 7.22156776 7.22156776 7.22156776 7.22156776 7.22156776 7.22156776 7.22156776 7.22156776 7.22156776 7.22156776 7.22156776 7.22156776 7.22156776 7.22156776 7.22156776 7.22156776 7.22156776 7.22156776 7.22156776 7.22156776 7.22156776 7.22156776 7.22156776 7.22156776 7.22156776 7.22156776 7.22156776 7.22156776 7.22156776 7.22156776 7.22156776 7.22156776 7.22156776 7.22156776 7.22156776 7.22156776 7.22156776 7.22156776 7.22156776 7.22156776 7.22156776 7.22156776 7.22156776 7.22156776 7.22156776 7.22156776 7.22156776 7.22156776 7.22156776 7.22156776 7.22156776 7.22156776 7.22156776 7.22156776 7.22156776 7.22156776 7.22156776 7.22156776 7.22156776 7.22156776 7.22156776 7.22156776 7.22156776 7.22156776 7.22156776 7.22156776 7.22156776 7.22156776 7.22156776 7.22156776 7.22156776 7.22156776 7.22156776 7.22156776 7.22156776 7.22156776 7.22156776 7.22156776 7.22156776 7.22156776 7.22156776 7.22156776 7.22156776 7.22156776 7.22156776 7.22156776 7.22156776 7.22156776 7.22156776 7.22156776 7.22156776 7.22156776 7.22156776 7.22156776 7.22156776 7.22156776 7.22156776 7.22156776 7.22156776 7.22156776 7.22156776 7.22156776 7.22156776 7.22156776 7.22156776 7.22156776 7.22156776 7.22156776 7.22156776 7.22156776 7.22156776 7.22156776 7.22156776 7.22156776 7.22156776 7.22156776 7.22156776 7.22156776 7.22156776 7.22156776 7.22156776 7.22156776 7.22156776 7.22156776 7.22156776 7.22156776 7.22156776 7.22156776 7.22156776 7.22156776 7.22156776 7.22156776 7.22156776 7.22156776 7.22156776 7.22156776 7.22156776 7.22156776 7.22156776 7.22156776 7.22156776 7.22156776 7.22156776 7.22156776 7.22156776 7.22156776 7.22156776 7.22156776 7.22156776 7.22156776 7.22156776 7.22156776 7.22156776 7.22156776 7.22156776 7.22156776 7.22156776 7.22156776 7.22156776 7.22156776 7.22156776 7.22156776 7.22156776 7.22156776 7.22156776 7.22156776 7.22156776 7.22156776 7.22156776 7.22156776 7.22156776 7.22156776 7.22156776 7.22156776 7.22156776 7.22156776 7.22156776 7.22156776 7.22156776 7.22156776 7.22156776 7.22156776 7.22156776 7.22156776 7.22156776 7.22156776 7.22156776 7.22156776 7.22156776 7.22156776 7.22156776 7.22156776 7.22156776 7.22156776 7.22156776 7.22156776 7.22156776 7.22156776 7.22156776 7.22156776 7.22156776 7.22156776 7.22156776 7.22156776 7.22156776 7.22156776 7.22156776 7.22156776 7.22156776 7.22156776 7.22156776 7.22156776 7.22156776 7.22156776 7.22156776 7.22156776 7.22156776 7.22156776 7.22156776 7.22156776 7.22156776 7.22156776 7.22156776 7.22156776 7.22156776 7.22156776 7.22156776 7.22156776 7.22156776 7.22156776 7.22156776 7.22156776 7.22156776 7.22156776 7.22156776 7.22156776 7.22156776 7.22156776 7.22156776 7.22156776 7.22156776 7.22156776 7.22156776 7.22156776 7.22156776 7.22156776 7.22156776 7.22156776 7.22156776 7.22156776 7.22006683 7.21924566 7.21894199 7.21894199 7.21924566 7.22006683 7.22156776 7.22156776 7.22156776 7.22156776 7.22156776 7.22156776 7.22156776 7.22156776 7.22156776 7.22156776 7.22156776 7.22156776 7.22156776 7.22156776 7.22156776 7.22156776 7.22156776 7.22156776 7.22156776 7.22156776 7.22156776 7.22156776 7.22156776 7.22156776 7.22156776 7.22156776 7.22156776 7.22156776 7.22156776 7.21998275 7.21880280 7.21810642 7.21766041 7.21725843 7.21656652 7.21599608 7.21571958 7.21571958 7.21599608 7.21656652 7.21725843 7.21766041 7.21810642 7.21880280 7.21998275 7.22156776 7.22156776 7.22156776 7.22156776 7.22156776 7.22156776 7.22156776 7.22156776 7.22156776 7.22156776 7.22156776 7.22156776 7.22156776 7.22156776 7.22156776 7.22156776 7.22156776 7.22156776 7.22156776 7.22156776 7.22156776 7.22156776 7.21921069 7.21790175 7.21660365 7.21544727 7.21460624 7.21401694 7.21355315 7.21310009 7.21273460 7.21254204 7.21254204 7.21273460 7.21310009 7.21355315 7.21401694 7.21460624 7.21544727 7.21660365 7.21790175 7.21921069 7.22156776 7.22156776 7.22156776 7.22156776 7.22156776 7.22156776 7.22156776 7.22156776 7.22156776 7.22156776 7.22156776 7.22156776 7.22156776 7.22156776 7.22156776 7.22156776 7.22156776 7.22156776 7.21935660 7.21777191 7.21591970 7.21444333 7.21322606 7.21223985 7.21151732 7.21101676 7.21065822 7.21037568 7.21016761 7.21005798 7.21005798 7.21016761 7.21037568 7.21065822 7.21101676 7.21151732 7.21223985 7.21322606 7.21444333 7.21591970 7.21777191 7.21935660 7.22156776 7.22156776 7.22156776 7.22156776 7.22156776 7.22156776 7.22156776 7.22156776 7.22156776 7.22156776 7.22156776 7.22156776 7.22156776 7.22156776 7.22156776 7.21875558 7.21638160 7.21442142 7.21271583 7.21138643 7.21040297 7.20970994 7.20926347 7.20900161 7.20885335 7.20876231 7.20870373 7.20867405 7.20867405 7.20870373 7.20876231 7.20885335 7.20900161 7.20926347 7.20970994 7.21040297 7.21138643 7.21271583 7.21442142 7.21638160 7.21875558 7.22156776 7.22156776 7.22156776 7.22156776 7.22156776 7.22156776 7.22156776 7.22156776 7.22156776 7.22156776 7.22156776 7.22156776 7.22016813 7.21816406 7.21561950 7.21330897 7.21142886 7.20999718 7.20901821 7.20843076 7.20814522 7.20807308 7.20813047 7.20824397 7.20835953 7.20844651 7.20849204 7.20849204 7.20844651 7.20835953 7.20824397 7.20813047 7.20807308 7.20814522 7.20843076 7.20901821 7.20999718 7.21142886 7.21330897 7.21561950 7.21816406 7.22016813 7.22156776 7.22156776 7.22156776 7.22156776 7.22156776 7.22156776 7.22156776 7.22156776 7.22156776 7.22156776 7.21817417 7.21531404 7.21270976 7.21056107 7.20898414 7.20798378 7.20749659 7.20740978 7.20759430 7.20793152 7.20832399 7.20869870 7.20900719 7.20922234 7.20933198 7.20933198 7.20922234 7.20900719 7.20869870 7.20832399 7.20793152 7.20759430 7.20740978 7.20749659 7.20798378 7.20898414 7.21056107 7.21270976 7.21531404 7.21817417 7.22156776 7.22156776 7.22156776 7.22156776 7.22156776 7.22156776 7.22156776 7.22156776 7.22156776 7.21883119 7.21566905 7.21270588 7.21020100 7.20834358 7.20720343 7.20673216 7.20680085 7.20724258 7.20789214 7.20861213 7.20930208 7.20989668 7.21035886 7.21067132 7.21082813 7.21082813 7.21067132 7.21035886 7.20989668 7.20930208 7.20861213 7.20789214 7.20724258 7.20680085 7.20673216 7.20720343 7.20834358 7.21020100 7.21270588 7.21566905 7.21883119 7.22156776 7.22156776 7.22156776 7.22156776 7.22156776 7.22156776 7.22156776 7.21958877 7.21665575 7.21344921 7.21051854 7.20821468 7.20672421 7.20607116 7.20614458 7.20675208 7.20767817 7.20873005 7.20976214 7.21068014 7.21143262 7.21199808 7.21237217 7.21255768 7.21255768 7.21237217 7.21199808 7.21143262 7.21068014 7.20976214 7.20873005 7.20767817 7.20675208 7.20614458 7.20607116 7.20672421 7.20821468 7.21051854 7.21344921 7.21665575 7.21958877 7.22156776 7.22156776 7.22156776 7.22156776 7.22156776 7.22156776 7.21846453 7.21508226 7.21174068 7.20886681 7.20678879 7.20566291 7.20546249 7.20601643 7.20707745 7.20839193 7.20974947 7.21100440 7.21207376 7.21292241 7.21354496 7.21395000 7.21414888 7.21414888 7.21395000 7.21354496 7.21292241 7.21207376 7.21100440 7.20974947 7.20839193 7.20707745 7.20601643 7.20546249 7.20566291 7.20678879 7.20886681 7.21174068 7.21508226 7.21846453 7.22156776 7.22156776 7.22156776 7.22156776 7.22156776 7.22156776 7.21774418 7.21403731 7.21059404 7.20777903 7.20589140 7.20505493 7.20519955 7.20610707 7.20749016 7.20906975 7.21062625 7.21201772 7.21317265 7.21406994 7.21471725 7.21513329 7.21533608 7.21533608 7.21513329 7.21471725 7.21406994 7.21317265 7.21201772 7.21062625 7.20906975 7.20749016 7.20610707 7.20519955 7.20505493 7.20589140 7.20777903 7.21059404 7.21403731 7.21774418 7.22156776 7.22156776 7.22156776 7.22156776 7.22156776 7.22041987 7.21715636 7.21346854 7.21001191 7.20724156 7.20546354 7.20478667 7.20511702 7.20621082 7.20775978 7.20947233 7.21112524 7.21257984 7.21377161 7.21468753 7.21534245 7.21576063 7.21596363 7.21596363 7.21576063 7.21534245 7.21468753 7.21377161 7.21257984 7.21112524 7.20947233 7.20775978 7.20621082 7.20511702 7.20478667 7.20546354 7.20724156 7.21001191 7.21346854 7.21715636 7.22041987 7.22156776 7.22156776 7.22156776 7.22156776 7.22041987 7.21715636 7.21346854 7.21001191 7.20724156 7.20546354 7.20478667 7.20511702 7.20621082 7.20775978 7.20947233 7.21112524 7.21257984 7.21377161 7.21468753 7.21534245 7.21576063 7.21596363 7.21596363 7.21576063 7.21534245 7.21468753 7.21377161 7.21257984 7.21112524 7.20947233 7.20775978 7.20621082 7.20511702 7.20478667 7.20546354 7.20724156 7.21001191 7.21346854 7.21715636 7.22041987 7.22156776 7.22156776 7.22156776 7.22156776 7.22156776 7.21774418 7.21403731 7.21059404 7.20777903 7.20589140 7.20505493 7.20519955 7.20610707 7.20749016 7.20906975 7.21062625 7.21201772 7.21317265 7.21406994 7.21471725 7.21513329 7.21533608 7.21533608 7.21513329 7.21471725 7.21406994 7.21317265 7.21201772 7.21062625 7.20906975 7.20749016 7.20610707 7.20519955 7.20505493 7.20589140 7.20777903 7.21059404 7.21403731 7.21774418 7.22156776 7.22156776 7.22156776 7.22156776 7.22156776 7.22156776 7.21846453 7.21508226 7.21174068 7.20886681 7.20678879 7.20566291 7.20546249 7.20601643 7.20707745 7.20839193 7.20974947 7.21100440 7.21207376 7.21292241 7.21354496 7.21395000 7.21414888 7.21414888 7.21395000 7.21354496 7.21292241 7.21207376 7.21100440 7.20974947 7.20839193 7.20707745 7.20601643 7.20546249 7.20566291 7.20678879 7.20886681 7.21174068 7.21508226 7.21846453 7.22156776 7.22156776 7.22156776 7.22156776 7.22156776 7.22156776 7.21958877 7.21665575 7.21344921 7.21051854 7.20821468 7.20672421 7.20607116 7.20614458 7.20675208 7.20767817 7.20873005 7.20976214 7.21068014 7.21143262 7.21199808 7.21237217 7.21255768 7.21255768 7.21237217 7.21199808 7.21143262 7.21068014 7.20976214 7.20873005 7.20767817 7.20675208 7.20614458 7.20607116 7.20672421 7.20821468 7.21051854 7.21344921 7.21665575 7.21958877 7.22156776 7.22156776 7.22156776 7.22156776 7.22156776 7.22156776 7.22156776 7.21883119 7.21566905 7.21270588 7.21020100 7.20834358 7.20720343 7.20673216 7.20680085 7.20724258 7.20789214 7.20861213 7.20930208 7.20989668 7.21035886 7.21067132 7.21082813 7.21082813 7.21067132 7.21035886 7.20989668 7.20930208 7.20861213 7.20789214 7.20724258 7.20680085 7.20673216 7.20720343 7.20834358 7.21020100 7.21270588 7.21566905 7.21883119 7.22156776 7.22156776 7.22156776 7.22156776 7.22156776 7.22156776 7.22156776 7.22156776 7.22156776 7.21817417 7.21531404 7.21270976 7.21056107 7.20898414 7.20798378 7.20749659 7.20740978 7.20759430 7.20793152 7.20832399 7.20869870 7.20900719 7.20922234 7.20933198 7.20933198 7.20922234 7.20900719 7.20869870 7.20832399 7.20793152 7.20759430 7.20740978 7.20749659 7.20798378 7.20898414 7.21056107 7.21270976 7.21531404 7.21817417 7.22156776 7.22156776 7.22156776 7.22156776 7.22156776 7.22156776 7.22156776 7.22156776 7.22156776 7.22156776 7.22016813 7.21816406 7.21561950 7.21330897 7.21142886 7.20999718 7.20901821 7.20843076 7.20814522 7.20807308 7.20813047 7.20824397 7.20835953 7.20844651 7.20849204 7.20849204 7.20844651 7.20835953 7.20824397 7.20813047 7.20807308 7.20814522 7.20843076 7.20901821 7.20999718 7.21142886 7.21330897 7.21561950 7.21816406 7.22016813 7.22156776 7.22156776 7.22156776 7.22156776 7.22156776 7.22156776 7.22156776 7.22156776 7.22156776 7.22156776 7.22156776 7.22156776 7.21875558 7.21638160 7.21442142 7.21271583 7.21138643 7.21040297 7.20970994 7.20926347 7.20900161 7.20885335 7.20876231 7.20870373 7.20867405 7.20867405 7.20870373 7.20876231 7.20885335 7.20900161 7.20926347 7.20970994 7.21040297 7.21138643 7.21271583 7.21442142 7.21638160 7.21875558 7.22156776 7.22156776 7.22156776 7.22156776 7.22156776 7.22156776 7.22156776 7.22156776 7.22156776 7.22156776 7.22156776 7.22156776 7.22156776 7.22156776 7.22156776 7.21935660 7.21777191 7.21591970 7.21444333 7.21322606 7.21223985 7.21151732 7.21101676 7.21065822 7.21037568 7.21016761 7.21005798 7.21005798 7.21016761 7.21037568 7.21065822 7.21101676 7.21151732 7.21223985 7.21322606 7.21444333 7.21591970 7.21777191 7.21935660 7.22156776 7.22156776 7.22156776 7.22156776 7.22156776 7.22156776 7.22156776 7.22156776 7.22156776 7.22156776 7.22156776 7.22156776 7.22156776 7.22156776 7.22156776 7.22156776 7.22156776 7.22156776 7.21921069 7.21790175 7.21660365 7.21544727 7.21460624 7.21401694 7.21355315 7.21310009 7.21273460 7.21254204 7.21254204 7.21273460 7.21310009 7.21355315 7.21401694 7.21460624 7.21544727 7.21660365 7.21790175 7.21921069 7.22156776 7.22156776 7.22156776 7.22156776 7.22156776 7.22156776 7.22156776 7.22156776 7.22156776 7.22156776 7.22156776 7.22156776 7.22156776 7.22156776 7.22156776 7.22156776 7.22156776 7.22156776 7.22156776 7.22156776 7.22156776 7.22156776 7.21998275 7.21880280 7.21810642 7.21766041 7.21725843 7.21656652 7.21599608 7.21571958 7.21571958 7.21599608 7.21656652 7.21725843 7.21766041 7.21810642 7.21880280 7.21998275 7.22156776 7.22156776 7.22156776 7.22156776 7.22156776 7.22156776 7.22156776 7.22156776 7.22156776 7.22156776 7.22156776 7.22156776 7.22156776 7.22156776 7.22156776 7.22156776 7.22156776 7.22156776 7.22156776 7.22156776 7.22156776 7.22156776 7.22156776 7.22156776 7.22156776 7.22156776 7.22156776 7.22156776 7.22156776 7.22006683 7.21924566 7.21894199 7.21894199 7.21924566 7.22006683 7.22156776 7.22156776 7.22156776 7.22156776 7.22156776 7.22156776 7.22156776 7.22156776 7.22156776 7.22156776 7.22156776 7.22156776 7.22156776 7.22156776 7.22156776 7.22156776 7.22156776 7.22156776 7.22156776 7.22156776 7.22156776 7.22156776 7.22156776 7.22156776 7.22156776 7.22156776 7.22156776 7.22156776 7.22156776 7.22156776 7.22156776 7.22156776 7.22156776 7.22156776 7.22156776 7.22156776 7.22156776 7.22156776 7.22156776 7.22156776 7.22156776 7.22156776 7.22156776 7.22156776 7.22156776 7.22156776 7.22156776 7.22156776 7.22156776 7.22156776 7.22156776 7.22156776 7.22156776 7.22156776 7.22156776 7.22156776 7.22156776 7.22156776 7.22156776 7.22156776 7.22156776 7.22156776 7.22156776 7.22156776 7.22156776 7.22156776 7.22156776 7.22156776 7.22156776 7.22156776 7.22156776 7.22156776 7.22156776 7.22156776 7.22156776 7.22156776 7.22156776 7.22156776 7.22156776 7.22156776 7.22156776 7.22156776 7.22156776 7.22156776 7.22156776 7.22156776 7.22156776 7.22156776 7.22156776 7.22156776 7.22156776 7.22156776 7.22156776 7.22156776 7.22156776 7.22156776 7.22156776 7.22156776 7.22156776 7.22156776 7.22156776 7.22156776 7.22156776 7.22156776 7.22156776 7.22156776 7.22156776 7.22156776 7.22156776 7.22156776 7.22156776 7.22156776 7.22156776 7.22156776 7.22156776 7.22156776 7.22156776 7.22156776 7.22156776 7.22156776 7.22156776 7.22156776 7.22156776 7.22156776 7.22156776 7.22156776 7.22156776 7.22156776 7.22156776 7.22156776 7.22156776 7.22156776 7.22156776 7.22156776 7.22156776 7.22156776 7.22156776 7.22156776 7.22156776 7.22156776 7.22156776 7.22156776 7.22156776 7.22156776 7.22156776 7.22156776 7.22156776 7.22156776 7.22156776 7.22156776 7.22156776 7.22156776 7.22156776 7.22156776 7.22156776 7.22156776 7.22156776 7.22156776 7.22156776 7.22156776 7.22156776 7.22156776 7.22156776 7.22156776 7.22156776 7.22156776 7.22156776 7.22156776 7.22156776 7.22156776 7.22156776 7.22156776 7.22156776 7.22156776 7.22156776 7.22156776 7.22156776 7.22156776 7.22156776 7.22156776 7.22156776 7.22156776 7.22156776 7.22156776 7.22156776 7.22156776 7.22156776 7.22156776 7.22156776 7.22156776 7.22156776 7.22156776 7.22156776 7.22156776 7.22156776 7.22156776 7.22156776 7.22156776 7.22156776 7.22156776 7.22156776 7.22156776 7.22156776 7.22156776 7.22156776 7.22156776 7.22156776 7.22156776 7.22156776 7.22156776 7.22156776 7.22156776 7.22156776 7.22156776 7.22156776 7.22156776 7.22156776 7.22156776 7.22156776 7.22156776 7.22156776 7.22156776 7.22156776 7.22156776 7.22156776 7.22156776 7.22156776 7.22156776 7.22156776 7.22156776 7.22156776 7.22156776 7.22156776 7.22156776 7.22156776 7.22156776 7.22156776 7.22156776 7.22156776 7.22156776 7.22156776 7.22156776 7.22156776 7.22156776 7.22156776 7.22156776 7.22156776 7.22156776 7.22156776 7.22156776 7.22156776 7.22156776 7.22156776 7.22156776 7.22156776 7.22156776 7.22156776 7.22156776 7.22156776 7.22156776 7.22156776 7.22156776 7.22156776 7.22156776 7.22156776 7.22156776 7.22156776 7.22156776 7.22156776 7.22156776 7.22156776 7.22156776 7.22156776 7.22156776 7.22156776 7.22156776 7.22156776 7.22156776 7.22156776 7.22156776 7.22156776 7.22156776 7.22156776 7.22156776 7.22156776 7.22156776 7.22156776 7.22156776 7.22156776 7.22156776 7.22156776 7.22156776 7.22156776 7.22156776 7.22156776 7.22156776 7.22156776 7.22156776 7.22156776 7.22156776 7.22156776 7.22156776 7.22156776 7.22156776 7.22156776 7.22156776 7.22156776 7.22156776 7.22156776 7.22156776 7.22156776 7.22156776 7.22156776 7.22156776 7.22156776 7.22156776 7.22156776 7.22156776 7.22156776 7.22156776 7.22156776 7.22156776 7.22156776 7.22156776 7.22156776 7.22156776 7.22156776 7.22156776 7.22156776 7.22156776 7.22156776 7.22156776 7.22156776 7.22156776 7.22156776 7.22156776 7.22156776 