# vtk DataFile Version 3.0
VTK - Matlab export
ASCII
DATASET STRUCTURED_POINTS
DIMENSIONS 40 40 1
SPACING 1 1 1
ORIGIN 0 0 0
POINT_DATA 1600
SCALARS Proofstrength float 1
LOOKUP_TABLE default
142.25514280 142.25514280 142.25514280 142.25514280 142.25514280 142.25514280 142.25514280 142.25514280 142.25514280 142.25514280 142.25514280 142.25514280 142.25514280 142.25514280 142.25514280 142.25514280 142.25514280 142.25514280 142.25514280 142.25514280 142.25514280 142.25514280 142.25514280 142.25514280 142.25514280 142.25514280 142.25514280 142.25514280 142.25514280 142.25514280 142.25514280 142.25514280 142.25514280 142.25514280 142.25514280 142.25514280 142.25514280 142.25514280 142.25514280 142.25514280 142.25514280 142.25514280 142.25514280 142.25514280 142.25514280 142.25514280 142.25514280 142.25514280 142.25514280 142.25514280 142.25514280 142.25514280 142.25514280 142.25514280 142.25514280 142.25514280 142.25514280 142.25514280 142.25514280 142.25514280 142.25514280 142.25514280 142.25514280 142.25514280 142.25514280 142.25514280 142.25514280 142.25514280 142.25514280 142.25514280 142.25514280 142.25514280 142.25514280 142.25514280 142.25514280 142.25514280 142.25514280 142.25514280 142.25514280 142.25514280 142.25514280 142.25514280 142.25514280 142.25514280 142.25514280 142.25514280 142.25514280 142.25514280 142.25514280 142.25514280 142.25514280 142.25514280 142.25514280 142.25514280 142.25514280 142.25514280 142.25514280 142.25514280 142.25514280 142.25514280 142.25514280 142.25514280 142.25514280 142.25514280 142.25514280 142.25514280 142.25514280 142.25514280 142.25514280 142.25514280 142.25514280 142.25514280 142.25514280 142.25514280 142.25514280 142.25514280 142.25514280 142.25514280 142.25514280 142.25514280 142.25514280 142.25514280 142.25514280 142.25514280 142.25514280 142.25514280 142.25514280 142.25514280 142.25514280 142.25514280 142.25514280 142.25514280 142.25514280 142.25514280 142.25514280 142.25514280 142.25514280 142.25514280 142.25514280 142.25514280 142.25514280 142.25514280 142.25514280 142.25514280 142.25514280 142.25514280 142.25514280 142.25514280 142.25514280 142.25514280 142.25514280 142.25514280 142.25514280 142.25514280 142.25514280 142.25514280 142.25514280 142.25514280 142.25514280 142.25514280 142.25514280 142.25514280 142.25514280 142.25514280 142.25514280 142.25514280 142.25514280 142.25514280 142.25514280 142.25514280 142.25514280 142.25514280 142.25514280 142.25514280 142.25514280 142.25514280 142.25514280 142.25514280 142.25514280 142.25514280 142.25514280 142.25514280 142.25514280 142.25514280 142.25514280 142.25514280 142.25514280 142.25514280 142.25514280 142.25514280 142.25514280 142.25514280 142.25514280 142.25514280 142.25514280 142.25514280 142.25514280 142.25514280 142.25514280 142.25514280 142.25514280 142.25514280 142.25514280 142.25514280 142.25514280 142.25514280 142.25514280 142.25514280 142.25514280 142.25514280 142.25514280 142.25514280 142.25514280 142.25514280 142.25514280 142.25514280 142.25514280 142.25514280 142.25514280 142.25514280 142.25514280 142.25514280 142.25514280 142.25514280 142.25514280 142.25514280 142.25514280 142.25514280 142.25514280 142.25514280 142.25514280 142.25514280 142.25514280 142.25514280 142.25514280 142.25514280 142.25514280 142.25514280 142.25514280 142.25514280 142.25514280 142.25514280 142.25514280 142.25514280 142.25514280 142.25514280 142.25514280 142.25514280 142.25514280 142.25514280 142.25514280 142.25514280 142.25514280 142.25514280 142.25514280 142.25514280 142.25514280 142.25514280 142.25514280 142.25514280 142.25514280 142.25514280 142.25514280 142.25514280 142.25514280 142.25514280 142.25514280 142.25514280 142.25514280 142.25514280 142.25514280 142.25514280 142.25514280 142.25514280 142.25514280 142.25514280 142.25514280 142.25514280 142.25514280 142.25514280 142.25514280 142.25514280 142.25514280 142.25514280 142.25514280 142.25514280 142.25514280 142.25514280 142.25514280 142.25514280 142.25514280 142.25514280 142.25514280 142.25514280 142.25514280 142.25514280 142.25514280 142.25514280 142.25514280 142.25514280 142.25514280 142.25514280 142.25514280 142.25514280 142.25514280 142.25514280 142.25514280 142.25514280 142.25514280 142.25514280 142.25514280 142.25514280 142.25514280 142.25514280 142.25514280 142.25514280 142.25514280 142.25514280 142.25514280 142.25514280 142.25514280 142.25514280 142.25514280 142.25514280 142.25514280 142.25514280 142.25514280 142.25514280 142.25514280 142.25514280 142.25514280 142.25514280 142.25514280 142.25514280 142.25514280 142.25514280 142.25514280 142.38854370 142.46614242 142.47321349 142.47321349 142.46614242 142.38854370 142.25514280 142.25514280 142.25514280 142.25514280 142.25514280 142.25514280 142.25514280 142.25514280 142.25514280 142.25514280 142.25514280 142.25514280 142.25514280 142.25514280 142.25514280 142.25514280 142.25514280 142.25514280 142.25514280 142.25514280 142.25514280 142.25514280 142.25514280 142.25514280 142.25514280 142.25514280 142.25514280 142.25514280 142.25514280 142.38537301 142.45624933 142.44684528 142.42496851 142.41420383 142.44021619 142.43838610 142.41723043 142.41723043 142.43838610 142.44021619 142.41420383 142.42496851 142.44684528 142.45624933 142.38537301 142.25514280 142.25514280 142.25514280 142.25514280 142.25514280 142.25514280 142.25514280 142.25514280 142.25514280 142.25514280 142.25514280 142.25514280 142.25514280 142.25514280 142.25514280 142.25514280 142.25514280 142.25514280 142.25514280 142.25514280 142.25514280 142.25514280 142.41713482 142.43889057 142.44446443 142.42221250 142.38327132 142.36167237 142.34862591 142.33763620 142.31768116 142.30336585 142.30336585 142.31768116 142.33763620 142.34862591 142.36167237 142.38327132 142.42221250 142.44446443 142.43889057 142.41713482 142.25514280 142.25514280 142.25514280 142.25514280 142.25514280 142.25514280 142.25514280 142.25514280 142.25514280 142.25514280 142.25514280 142.25514280 142.25514280 142.25514280 142.25514280 142.25514280 142.25514280 142.25514280 142.41914126 142.43598888 142.43428252 142.38403959 142.34360077 142.31066595 142.29019665 142.28341034 142.27929792 142.27315852 142.26581821 142.26233650 142.26233650 142.26581821 142.27315852 142.27929792 142.28341034 142.29019665 142.31066595 142.34360077 142.38403959 142.43428252 142.43598888 142.41914126 142.25514280 142.25514280 142.25514280 142.25514280 142.25514280 142.25514280 142.25514280 142.25514280 142.25514280 142.25514280 142.25514280 142.25514280 142.25514280 142.25514280 142.25514280 142.40887597 142.45410973 142.39231621 142.33279786 142.29352610 142.27498198 142.26443377 142.26006806 142.25918091 142.25858502 142.25731506 142.25609024 142.25570061 142.25570061 142.25609024 142.25731506 142.25858502 142.25918091 142.26006806 142.26443377 142.27498198 142.29352610 142.33279786 142.39231621 142.45410973 142.40887597 142.25514280 142.25514280 142.25514280 142.25514280 142.25514280 142.25514280 142.25514280 142.25514280 142.25514280 142.25514280 142.25514280 142.25514280 142.39133557 142.44465585 142.43229693 142.36382705 142.30196111 142.27201863 142.26102205 142.25753062 142.25595332 142.25551600 142.25547332 142.25542800 142.25528515 142.25518058 142.25516330 142.25516330 142.25518058 142.25528515 142.25542800 142.25547332 142.25551600 142.25595332 142.25753062 142.26102205 142.27201863 142.30196111 142.36382705 142.43229693 142.44465585 142.39133557 142.25514280 142.25514280 142.25514280 142.25514280 142.25514280 142.25514280 142.25514280 142.25514280 142.25514280 142.25514280 142.44467147 142.42980826 142.34698724 142.28740250 142.26363148 142.25707140 142.25561851 142.25529477 142.25517481 142.25515755 142.25515755 142.25515591 142.25514690 142.25514307 142.25514307 142.25514307 142.25514307 142.25514690 142.25515591 142.25515755 142.25515755 142.25517481 142.25529477 142.25561851 142.25707140 142.26363148 142.28740250 142.34698724 142.42980826 142.44467147 142.25514280 142.25514280 142.25514280 142.25514280 142.25514280 142.25514280 142.25514280 142.25514280 142.25514280 142.40993753 142.43259967 142.34701532 142.28348708 142.26078336 142.25596648 142.25525047 142.25516166 142.25514690 142.25514307 142.25514307 142.25514307 142.25514307 142.25514280 142.25514280 142.25514280 142.25514280 142.25514280 142.25514280 142.25514307 142.25514307 142.25514307 142.25514307 142.25514690 142.25516166 142.25525047 142.25596648 142.26078336 142.28348708 142.34701532 142.43259967 142.40993753 142.25514280 142.25514280 142.25514280 142.25514280 142.25514280 142.25514280 142.25514280 142.42848542 142.46118272 142.36583701 142.28766451 142.26079752 142.25571521 142.25517916 142.25514498 142.25514307 142.25514280 142.25514280 142.25514280 142.25514280 142.25514280 142.25514280 142.25514280 142.25514280 142.25514280 142.25514280 142.25514280 142.25514280 142.25514280 142.25514280 142.25514280 142.25514280 142.25514307 142.25514498 142.25517916 142.25571521 142.26079752 142.28766451 142.36583701 142.46118272 142.42848542 142.25514280 142.25514280 142.25514280 142.25514280 142.25514280 142.25514280 142.45747265 142.41373638 142.30867600 142.26459431 142.25603115 142.25518080 142.25514335 142.25514280 142.25514280 142.25514280 142.25514280 142.25514280 142.25514280 142.25514280 142.25514280 142.25514280 142.25514280 142.25514280 142.25514280 142.25514280 142.25514280 142.25514280 142.25514280 142.25514280 142.25514280 142.25514280 142.25514280 142.25514335 142.25518080 142.25603115 142.26459431 142.30867600 142.41373638 142.45747265 142.25514280 142.25514280 142.25514280 142.25514280 142.25514280 142.25514280 142.44041678 142.36813838 142.28450855 142.25915877 142.25544941 142.25515591 142.25514307 142.25514280 142.25514280 142.25514280 142.25514280 142.25514280 142.25514280 142.25514280 142.25514280 142.25514280 142.25514280 142.25514280 142.25514280 142.25514280 142.25514280 142.25514280 142.25514280 142.25514280 142.25514280 142.25514280 142.25514280 142.25514307 142.25515591 142.25544941 142.25915877 142.28450855 142.36813838 142.44041678 142.25514280 142.25514280 142.25514280 142.25514280 142.25514280 142.39228105 142.47523932 142.35769272 142.27744479 142.25772612 142.25530081 142.25514690 142.25514280 142.25514280 142.25514280 142.25514280 142.25514280 142.25514280 142.25514280 142.25514280 142.25514280 142.25514280 142.25514280 142.25514280 142.25514280 142.25514280 142.25514280 142.25514280 142.25514280 142.25514280 142.25514280 142.25514280 142.25514280 142.25514280 142.25514690 142.25530081 142.25772612 142.27744479 142.35769272 142.47523932 142.39228105 142.25514280 142.25514280 142.25514280 142.25514280 142.39228105 142.47523932 142.35769272 142.27744479 142.25772612 142.25530081 142.25514690 142.25514280 142.25514280 142.25514280 142.25514280 142.25514280 142.25514280 142.25514280 142.25514280 142.25514280 142.25514280 142.25514280 142.25514280 142.25514280 142.25514280 142.25514280 142.25514280 142.25514280 142.25514280 142.25514280 142.25514280 142.25514280 142.25514280 142.25514690 142.25530081 142.25772612 142.27744479 142.35769272 142.47523932 142.39228105 142.25514280 142.25514280 142.25514280 142.25514280 142.25514280 142.44041678 142.36813838 142.28450855 142.25915877 142.25544941 142.25515591 142.25514307 142.25514280 142.25514280 142.25514280 142.25514280 142.25514280 142.25514280 142.25514280 142.25514280 142.25514280 142.25514280 142.25514280 142.25514280 142.25514280 142.25514280 142.25514280 142.25514280 142.25514280 142.25514280 142.25514280 142.25514280 142.25514307 142.25515591 142.25544941 142.25915877 142.28450855 142.36813838 142.44041678 142.25514280 142.25514280 142.25514280 142.25514280 142.25514280 142.25514280 142.45747265 142.41373638 142.30867600 142.26459431 142.25603115 142.25518080 142.25514335 142.25514280 142.25514280 142.25514280 142.25514280 142.25514280 142.25514280 142.25514280 142.25514280 142.25514280 142.25514280 142.25514280 142.25514280 142.25514280 142.25514280 142.25514280 142.25514280 142.25514280 142.25514280 142.25514280 142.25514280 142.25514335 142.25518080 142.25603115 142.26459431 142.30867600 142.41373638 142.45747265 142.25514280 142.25514280 142.25514280 142.25514280 142.25514280 142.25514280 142.42848542 142.46118272 142.36583701 142.28766451 142.26079752 142.25571521 142.25517916 142.25514498 142.25514307 142.25514280 142.25514280 142.25514280 142.25514280 142.25514280 142.25514280 142.25514280 142.25514280 142.25514280 142.25514280 142.25514280 142.25514280 142.25514280 142.25514280 142.25514280 142.25514280 142.25514307 142.25514498 142.25517916 142.25571521 142.26079752 142.28766451 142.36583701 142.46118272 142.42848542 142.25514280 142.25514280 142.25514280 142.25514280 142.25514280 142.25514280 142.25514280 142.40993753 142.43259967 142.34701532 142.28348708 142.26078336 142.25596648 142.25525047 142.25516166 142.25514690 142.25514307 142.25514307 142.25514307 142.25514307 142.25514280 142.25514280 142.25514280 142.25514280 142.25514280 142.25514280 142.25514307 142.25514307 142.25514307 142.25514307 142.25514690 142.25516166 142.25525047 142.25596648 142.26078336 142.28348708 142.34701532 142.43259967 142.40993753 142.25514280 142.25514280 142.25514280 142.25514280 142.25514280 142.25514280 142.25514280 142.25514280 142.25514280 142.44467147 142.42980826 142.34698724 142.28740250 142.26363148 142.25707140 142.25561851 142.25529477 142.25517481 142.25515755 142.25515755 142.25515591 142.25514690 142.25514307 142.25514307 142.25514307 142.25514307 142.25514690 142.25515591 142.25515755 142.25515755 142.25517481 142.25529477 142.25561851 142.25707140 142.26363148 142.28740250 142.34698724 142.42980826 142.44467147 142.25514280 142.25514280 142.25514280 142.25514280 142.25514280 142.25514280 142.25514280 142.25514280 142.25514280 142.25514280 142.39133557 142.44465585 142.43229693 142.36382705 142.30196111 142.27201863 142.26102205 142.25753062 142.25595332 142.25551600 142.25547332 142.25542800 142.25528515 142.25518058 142.25516330 142.25516330 142.25518058 142.25528515 142.25542800 142.25547332 142.25551600 142.25595332 142.25753062 142.26102205 142.27201863 142.30196111 142.36382705 142.43229693 142.44465585 142.39133557 142.25514280 142.25514280 142.25514280 142.25514280 142.25514280 142.25514280 142.25514280 142.25514280 142.25514280 142.25514280 142.25514280 142.25514280 142.40887597 142.45410973 142.39231621 142.33279786 142.29352610 142.27498198 142.26443377 142.26006806 142.25918091 142.25858502 142.25731506 142.25609024 142.25570061 142.25570061 142.25609024 142.25731506 142.25858502 142.25918091 142.26006806 142.26443377 142.27498198 142.29352610 142.33279786 142.39231621 142.45410973 142.40887597 142.25514280 142.25514280 142.25514280 142.25514280 142.25514280 142.25514280 142.25514280 142.25514280 142.25514280 142.25514280 142.25514280 142.25514280 142.25514280 142.25514280 142.25514280 142.41914126 142.43598888 142.43428252 142.38403959 142.34360077 142.31066595 142.29019665 142.28341034 142.27929792 142.27315852 142.26581821 142.26233650 142.26233650 142.26581821 142.27315852 142.27929792 142.28341034 142.29019665 142.31066595 142.34360077 142.38403959 142.43428252 142.43598888 142.41914126 142.25514280 142.25514280 142.25514280 142.25514280 142.25514280 142.25514280 142.25514280 142.25514280 142.25514280 142.25514280 142.25514280 142.25514280 142.25514280 142.25514280 142.25514280 142.25514280 142.25514280 142.25514280 142.41713482 142.43889057 142.44446443 142.42221250 142.38327132 142.36167237 142.34862591 142.33763620 142.31768116 142.30336585 142.30336585 142.31768116 142.33763620 142.34862591 142.36167237 142.38327132 142.42221250 142.44446443 142.43889057 142.41713482 142.25514280 142.25514280 142.25514280 142.25514280 142.25514280 142.25514280 142.25514280 142.25514280 142.25514280 142.25514280 142.25514280 142.25514280 142.25514280 142.25514280 142.25514280 142.25514280 142.25514280 142.25514280 142.25514280 142.25514280 142.25514280 142.25514280 142.38537301 142.45624933 142.44684528 142.42496851 142.41420383 142.44021619 142.43838610 142.41723043 142.41723043 142.43838610 142.44021619 142.41420383 142.42496851 142.44684528 142.45624933 142.38537301 142.25514280 142.25514280 142.25514280 142.25514280 142.25514280 142.25514280 142.25514280 142.25514280 142.25514280 142.25514280 142.25514280 142.25514280 142.25514280 142.25514280 142.25514280 142.25514280 142.25514280 142.25514280 142.25514280 142.25514280 142.25514280 142.25514280 142.25514280 142.25514280 142.25514280 142.25514280 142.25514280 142.25514280 142.25514280 142.38854370 142.46614242 142.47321349 142.47321349 142.46614242 142.38854370 142.25514280 142.25514280 142.25514280 142.25514280 142.25514280 142.25514280 142.25514280 142.25514280 142.25514280 142.25514280 142.25514280 142.25514280 142.25514280 142.25514280 142.25514280 142.25514280 142.25514280 142.25514280 142.25514280 142.25514280 142.25514280 142.25514280 142.25514280 142.25514280 142.25514280 142.25514280 142.25514280 142.25514280 142.25514280 142.25514280 142.25514280 142.25514280 142.25514280 142.25514280 142.25514280 142.25514280 142.25514280 142.25514280 142.25514280 142.25514280 142.25514280 142.25514280 142.25514280 142.25514280 142.25514280 142.25514280 142.25514280 142.25514280 142.25514280 142.25514280 142.25514280 142.25514280 142.25514280 142.25514280 142.25514280 142.25514280 142.25514280 142.25514280 142.25514280 142.25514280 142.25514280 142.25514280 142.25514280 142.25514280 142.25514280 142.25514280 142.25514280 142.25514280 142.25514280 142.25514280 142.25514280 142.25514280 142.25514280 142.25514280 142.25514280 142.25514280 142.25514280 142.25514280 142.25514280 142.25514280 142.25514280 142.25514280 142.25514280 142.25514280 142.25514280 142.25514280 142.25514280 142.25514280 142.25514280 142.25514280 142.25514280 142.25514280 142.25514280 142.25514280 142.25514280 142.25514280 142.25514280 142.25514280 142.25514280 142.25514280 142.25514280 142.25514280 142.25514280 142.25514280 142.25514280 142.25514280 142.25514280 142.25514280 142.25514280 142.25514280 142.25514280 142.25514280 142.25514280 142.25514280 142.25514280 142.25514280 142.25514280 142.25514280 142.25514280 142.25514280 142.25514280 142.25514280 142.25514280 142.25514280 142.25514280 142.25514280 142.25514280 142.25514280 142.25514280 142.25514280 142.25514280 142.25514280 142.25514280 142.25514280 142.25514280 142.25514280 142.25514280 142.25514280 142.25514280 142.25514280 142.25514280 142.25514280 142.25514280 142.25514280 142.25514280 142.25514280 142.25514280 142.25514280 142.25514280 142.25514280 142.25514280 142.25514280 142.25514280 142.25514280 142.25514280 142.25514280 142.25514280 142.25514280 142.25514280 142.25514280 142.25514280 142.25514280 142.25514280 142.25514280 142.25514280 142.25514280 142.25514280 142.25514280 142.25514280 142.25514280 142.25514280 142.25514280 142.25514280 142.25514280 142.25514280 142.25514280 142.25514280 142.25514280 142.25514280 142.25514280 142.25514280 142.25514280 142.25514280 142.25514280 142.25514280 142.25514280 142.25514280 142.25514280 142.25514280 142.25514280 142.25514280 142.25514280 142.25514280 142.25514280 142.25514280 142.25514280 142.25514280 142.25514280 142.25514280 142.25514280 142.25514280 142.25514280 142.25514280 142.25514280 142.25514280 142.25514280 142.25514280 142.25514280 142.25514280 142.25514280 142.25514280 142.25514280 142.25514280 142.25514280 142.25514280 142.25514280 142.25514280 142.25514280 142.25514280 142.25514280 142.25514280 142.25514280 142.25514280 142.25514280 142.25514280 142.25514280 142.25514280 142.25514280 142.25514280 142.25514280 142.25514280 142.25514280 142.25514280 142.25514280 142.25514280 142.25514280 142.25514280 142.25514280 142.25514280 142.25514280 142.25514280 142.25514280 142.25514280 142.25514280 142.25514280 142.25514280 142.25514280 142.25514280 142.25514280 142.25514280 142.25514280 142.25514280 142.25514280 142.25514280 142.25514280 142.25514280 142.25514280 142.25514280 142.25514280 142.25514280 142.25514280 142.25514280 142.25514280 142.25514280 142.25514280 142.25514280 142.25514280 142.25514280 142.25514280 142.25514280 142.25514280 142.25514280 142.25514280 142.25514280 142.25514280 142.25514280 142.25514280 142.25514280 142.25514280 142.25514280 142.25514280 142.25514280 142.25514280 142.25514280 142.25514280 142.25514280 142.25514280 142.25514280 142.25514280 142.25514280 142.25514280 142.25514280 142.25514280 142.25514280 142.25514280 142.25514280 142.25514280 142.25514280 142.25514280 142.25514280 142.25514280 142.25514280 142.25514280 142.25514280 142.25514280 142.25514280 142.25514280 142.25514280 142.25514280 142.25514280 142.25514280 142.25514280 142.25514280 142.25514280 142.25514280 142.25514280 142.25514280 142.25514280 142.25514280 142.25514280 142.25514280 142.25514280 142.25514280 142.25514280 142.25514280 142.25514280 142.25514280 142.25514280 142.25514280 142.25514280 142.25514280 142.25514280 142.25514280 142.25514280 142.25514280 142.25514280 142.25514280 