# vtk DataFile Version 3.0
VTK - Matlab export
ASCII
DATASET STRUCTURED_POINTS
DIMENSIONS 40 40 1
SPACING 1 1 1
ORIGIN 0 0 0
POINT_DATA 1600
SCALARS Proofstrength float 1
LOOKUP_TABLE default
142.25514280 142.25514280 142.25514280 142.25514280 142.25514280 142.25514280 142.25514280 142.25514280 142.25514280 142.25514280 142.25514280 142.25514280 142.25514280 142.25514280 142.25514280 142.25514280 142.25514280 142.25514280 142.25514280 142.25514280 142.25514280 142.25514280 142.25514280 142.25514280 142.25514280 142.25514280 142.25514280 142.25514280 142.25514280 142.25514280 142.25514280 142.25514280 142.25514280 142.25514280 142.25514280 142.25514280 142.25514280 142.25514280 142.25514280 142.25514280 142.25514280 142.25514280 142.25514280 142.25514280 142.25514280 142.25514280 142.25514280 142.25514280 142.25514280 142.25514280 142.25514280 142.25514280 142.25514280 142.25514280 142.25514280 142.25514280 142.25514280 142.25514280 142.25514280 142.25514280 142.25514280 142.25514280 142.25514280 142.25514280 142.25514280 142.25514280 142.25514280 142.25514280 142.25514280 142.25514280 142.25514280 142.25514280 142.25514280 142.25514280 142.25514280 142.25514280 142.25514280 142.25514280 142.25514280 142.25514280 142.25514280 142.25514280 142.25514280 142.25514280 142.25514280 142.25514280 142.25514280 142.25514280 142.25514280 142.25514280 142.25514280 142.25514280 142.25514280 142.25514280 142.25514280 142.25514280 142.25514280 142.25514280 142.25514280 142.25514280 142.25514280 142.25514280 142.25514280 142.25514280 142.25514280 142.25514280 142.25514280 142.25514280 142.25514280 142.25514280 142.25514280 142.25514280 142.25514280 142.25514280 142.25514280 142.25514280 142.25514280 142.25514280 142.25514280 142.25514280 142.25514280 142.25514280 142.25514280 142.25514280 142.25514280 142.25514280 142.25514280 142.25514280 142.25514280 142.25514280 142.25514280 142.25514280 142.25514280 142.25514280 142.25514280 142.25514280 142.25514280 142.25514280 142.25514280 142.25514280 142.25514280 142.25514280 142.25514280 142.25514280 142.25514280 142.25514280 142.25514280 142.25514280 142.25514280 142.25514280 142.25514280 142.25514280 142.25514280 142.25514280 142.25514280 142.25514280 142.25514280 142.25514280 142.25514280 142.25514280 142.25514280 142.25514280 142.25514280 142.25514280 142.25514280 142.25514280 142.25514280 142.25514280 142.25514280 142.25514280 142.25514280 142.25514280 142.25514280 142.25514280 142.25514280 142.25514280 142.25514280 142.25514280 142.25514280 142.25514280 142.25514280 142.25514280 142.25514280 142.25514280 142.25514280 142.25514280 142.25514280 142.25514280 142.25514280 142.25514280 142.25514280 142.25514280 142.25514280 142.25514280 142.25514280 142.25514280 142.25514280 142.25514280 142.25514280 142.25514280 142.25514280 142.25514280 142.25514280 142.25514280 142.25514280 142.25514280 142.25514280 142.25514280 142.25514280 142.25514280 142.25514280 142.25514280 142.25514280 142.25514280 142.25514280 142.25514280 142.25514280 142.25514280 142.25514280 142.25514280 142.25514280 142.25514280 142.25514280 142.25514280 142.25514280 142.25514280 142.25514280 142.25514280 142.25514280 142.25514280 142.25514280 142.25514280 142.25514280 142.25514280 142.25514280 142.25514280 142.25514280 142.25514280 142.25514280 142.25514280 142.25514280 142.25514280 142.25514280 142.25514280 142.25514280 142.25514280 142.25514280 142.25514280 142.25514280 142.25514280 142.25514280 142.25514280 142.25514280 142.25514280 142.25514280 142.25514280 142.25514280 142.25514280 142.25514280 142.25514280 142.25514280 142.25514280 142.25514280 142.25514280 142.25514280 142.25514280 142.25514280 142.25514280 142.25514280 142.25514280 142.25514280 142.25514280 142.25514280 142.25514280 142.25514280 142.25514280 142.25514280 142.25514280 142.25514280 142.25514280 142.25514280 142.25514280 142.25514280 142.25514280 142.25514280 142.25514280 142.25514280 142.25514280 142.25514280 142.25514280 142.25514280 142.25514280 142.25514280 142.25514280 142.25514280 142.25514280 142.25514280 142.25514280 142.25514280 142.25514280 142.25514280 142.25514280 142.25514280 142.25514280 142.25514280 142.25514280 142.25514280 142.25514280 142.25514280 142.25514280 142.25514280 142.25514280 142.25514280 142.25514280 142.25514280 142.25514280 142.25514280 142.25514280 142.25514280 142.25514280 142.25514280 142.25514280 142.25514280 142.25514280 142.25514280 142.25514280 142.25514280 142.25514280 142.25514280 142.25514280 142.25514280 142.25514280 142.25514280 142.25514280 142.25514280 142.25514280 142.25514280 142.25617908 142.25673405 142.25693621 142.25693621 142.25673405 142.25617908 142.25514280 142.25514280 142.25514280 142.25514280 142.25514280 142.25514280 142.25514280 142.25514280 142.25514280 142.25514280 142.25514280 142.25514280 142.25514280 142.25514280 142.25514280 142.25514280 142.25514280 142.25514280 142.25514280 142.25514280 142.25514280 142.25514280 142.25514280 142.25514280 142.25514280 142.25514280 142.25514280 142.25514280 142.25514280 142.25623335 142.25705034 142.25754784 142.25788149 142.25818265 142.25867013 142.25906274 142.25925122 142.25925122 142.25906274 142.25867013 142.25818265 142.25788149 142.25754784 142.25705034 142.25623335 142.25514280 142.25514280 142.25514280 142.25514280 142.25514280 142.25514280 142.25514280 142.25514280 142.25514280 142.25514280 142.25514280 142.25514280 142.25514280 142.25514280 142.25514280 142.25514280 142.25514280 142.25514280 142.25514280 142.25514280 142.25514280 142.25514280 142.25675611 142.25767911 142.25861637 142.25947357 142.26013020 142.26062005 142.26101511 142.26138205 142.26166637 142.26181388 142.26181388 142.26166637 142.26138205 142.26101511 142.26062005 142.26013020 142.25947357 142.25861637 142.25767911 142.25675611 142.25514280 142.25514280 142.25514280 142.25514280 142.25514280 142.25514280 142.25514280 142.25514280 142.25514280 142.25514280 142.25514280 142.25514280 142.25514280 142.25514280 142.25514280 142.25514280 142.25514280 142.25514280 142.25663151 142.25774176 142.25907751 142.26020855 142.26120252 142.26206158 142.26274836 142.26327457 142.26367820 142.26399234 142.26421392 142.26432771 142.26432771 142.26421392 142.26399234 142.26367820 142.26327457 142.26274836 142.26206158 142.26120252 142.26020855 142.25907751 142.25774176 142.25663151 142.25514280 142.25514280 142.25514280 142.25514280 142.25514280 142.25514280 142.25514280 142.25514280 142.25514280 142.25514280 142.25514280 142.25514280 142.25514280 142.25514280 142.25514280 142.25701654 142.25867104 142.26014118 142.26152746 142.26273176 142.26374619 142.26457654 142.26522483 142.26571068 142.26606584 142.26631925 142.26648517 142.26656750 142.26656750 142.26648517 142.26631925 142.26606584 142.26571068 142.26522483 142.26457654 142.26374619 142.26273176 142.26152746 142.26014118 142.25867104 142.25701654 142.25514280 142.25514280 142.25514280 142.25514280 142.25514280 142.25514280 142.25514280 142.25514280 142.25514280 142.25514280 142.25514280 142.25514280 142.25603153 142.25735637 142.25912909 142.26088145 142.26249129 142.26392278 142.26513059 142.26610483 142.26685794 142.26741285 142.26780268 142.26806542 142.26823540 142.26833700 142.26838451 142.26838451 142.26833700 142.26823540 142.26806542 142.26780268 142.26741285 142.26685794 142.26610483 142.26513059 142.26392278 142.26249129 142.26088145 142.25912909 142.25735637 142.25603153 142.25514280 142.25514280 142.25514280 142.25514280 142.25514280 142.25514280 142.25514280 142.25514280 142.25514280 142.25514280 142.25729128 142.25922530 142.26117482 142.26303247 142.26470469 142.26613437 142.26728942 142.26816924 142.26879814 142.26921566 142.26946945 142.26960816 142.26967465 142.26970150 142.26970979 142.26970979 142.26970150 142.26967465 142.26960816 142.26946945 142.26921566 142.26879814 142.26816924 142.26728942 142.26613437 142.26470469 142.26303247 142.26117482 142.25922530 142.25729128 142.25514280 142.25514280 142.25514280 142.25514280 142.25514280 142.25514280 142.25514280 142.25514280 142.25514280 142.25681831 142.25886453 142.26097983 142.26305919 142.26498902 142.26667618 142.26806173 142.26912240 142.26986959 142.27034189 142.27059461 142.27068984 142.27068778 142.27064026 142.27058689 142.27055378 142.27055378 142.27058689 142.27064026 142.27068778 142.27068984 142.27059461 142.27034189 142.26986959 142.26912240 142.26806173 142.26667618 142.26498902 142.26305919 142.26097983 142.25886453 142.25681831 142.25514280 142.25514280 142.25514280 142.25514280 142.25514280 142.25514280 142.25514280 142.25631596 142.25812800 142.26027318 142.26251296 142.26468311 142.26665210 142.26832240 142.26963710 142.27058163 142.27117990 142.27148495 142.27156688 142.27150105 142.27135839 142.27119877 142.27106757 142.27099462 142.27099462 142.27106757 142.27119877 142.27135839 142.27150105 142.27156688 142.27148495 142.27117990 142.27058163 142.26963710 142.26832240 142.26665210 142.26468311 142.26251296 142.26027318 142.25812800 142.25631596 142.25514280 142.25514280 142.25514280 142.25514280 142.25514280 142.25514280 142.25697484 142.25907782 142.26138211 142.26373044 142.26596485 142.26795020 142.26958793 142.27082472 142.27165428 142.27211189 142.27226339 142.27219150 142.27198265 142.27171655 142.27145949 142.27126116 142.27115403 142.27115403 142.27126116 142.27145949 142.27171655 142.27198265 142.27219150 142.27226339 142.27211189 142.27165428 142.27082472 142.26958793 142.26795020 142.26596485 142.26373044 142.26138211 142.25907782 142.25697484 142.25514280 142.25514280 142.25514280 142.25514280 142.25514280 142.25514280 142.25739598 142.25971430 142.26214507 142.26457232 142.26684770 142.26883686 142.27044204 142.27161350 142.27235148 142.27269996 142.27273433 142.27254653 142.27223092 142.27187339 142.27154463 142.27129714 142.27116507 142.27116507 142.27129714 142.27154463 142.27187339 142.27223092 142.27254653 142.27273433 142.27269996 142.27235148 142.27161350 142.27044204 142.26883686 142.26684770 142.26457232 142.26214507 142.25971430 142.25739598 142.25514280 142.25514280 142.25514280 142.25514280 142.25514280 142.25580793 142.25773595 142.26006098 142.26253862 142.26500293 142.26729733 142.26928590 142.27087124 142.27200565 142.27269300 142.27298198 142.27295307 142.27270308 142.27233051 142.27192442 142.27155771 142.27128429 142.27113908 142.27113908 142.27128429 142.27155771 142.27192442 142.27233051 142.27270308 142.27295307 142.27298198 142.27269300 142.27200565 142.27087124 142.26928590 142.26729733 142.26500293 142.26253862 142.26006098 142.25773595 142.25580793 142.25514280 142.25514280 142.25514280 142.25514280 142.25580793 142.25773595 142.26006098 142.26253862 142.26500293 142.26729733 142.26928590 142.27087124 142.27200565 142.27269300 142.27298198 142.27295307 142.27270308 142.27233051 142.27192442 142.27155771 142.27128429 142.27113908 142.27113908 142.27128429 142.27155771 142.27192442 142.27233051 142.27270308 142.27295307 142.27298198 142.27269300 142.27200565 142.27087124 142.26928590 142.26729733 142.26500293 142.26253862 142.26006098 142.25773595 142.25580793 142.25514280 142.25514280 142.25514280 142.25514280 142.25514280 142.25739598 142.25971430 142.26214507 142.26457232 142.26684770 142.26883686 142.27044204 142.27161350 142.27235148 142.27269996 142.27273433 142.27254653 142.27223092 142.27187339 142.27154463 142.27129714 142.27116507 142.27116507 142.27129714 142.27154463 142.27187339 142.27223092 142.27254653 142.27273433 142.27269996 142.27235148 142.27161350 142.27044204 142.26883686 142.26684770 142.26457232 142.26214507 142.25971430 142.25739598 142.25514280 142.25514280 142.25514280 142.25514280 142.25514280 142.25514280 142.25697484 142.25907782 142.26138211 142.26373044 142.26596485 142.26795020 142.26958793 142.27082472 142.27165428 142.27211189 142.27226339 142.27219150 142.27198265 142.27171655 142.27145949 142.27126116 142.27115403 142.27115403 142.27126116 142.27145949 142.27171655 142.27198265 142.27219150 142.27226339 142.27211189 142.27165428 142.27082472 142.26958793 142.26795020 142.26596485 142.26373044 142.26138211 142.25907782 142.25697484 142.25514280 142.25514280 142.25514280 142.25514280 142.25514280 142.25514280 142.25631596 142.25812800 142.26027318 142.26251296 142.26468311 142.26665210 142.26832240 142.26963710 142.27058163 142.27117990 142.27148495 142.27156688 142.27150105 142.27135839 142.27119877 142.27106757 142.27099462 142.27099462 142.27106757 142.27119877 142.27135839 142.27150105 142.27156688 142.27148495 142.27117990 142.27058163 142.26963710 142.26832240 142.26665210 142.26468311 142.26251296 142.26027318 142.25812800 142.25631596 142.25514280 142.25514280 142.25514280 142.25514280 142.25514280 142.25514280 142.25514280 142.25681831 142.25886453 142.26097983 142.26305919 142.26498902 142.26667618 142.26806173 142.26912240 142.26986959 142.27034189 142.27059461 142.27068984 142.27068778 142.27064026 142.27058689 142.27055378 142.27055378 142.27058689 142.27064026 142.27068778 142.27068984 142.27059461 142.27034189 142.26986959 142.26912240 142.26806173 142.26667618 142.26498902 142.26305919 142.26097983 142.25886453 142.25681831 142.25514280 142.25514280 142.25514280 142.25514280 142.25514280 142.25514280 142.25514280 142.25514280 142.25514280 142.25729128 142.25922530 142.26117482 142.26303247 142.26470469 142.26613437 142.26728942 142.26816924 142.26879814 142.26921566 142.26946945 142.26960816 142.26967465 142.26970150 142.26970979 142.26970979 142.26970150 142.26967465 142.26960816 142.26946945 142.26921566 142.26879814 142.26816924 142.26728942 142.26613437 142.26470469 142.26303247 142.26117482 142.25922530 142.25729128 142.25514280 142.25514280 142.25514280 142.25514280 142.25514280 142.25514280 142.25514280 142.25514280 142.25514280 142.25514280 142.25603153 142.25735637 142.25912909 142.26088145 142.26249129 142.26392278 142.26513059 142.26610483 142.26685794 142.26741285 142.26780268 142.26806542 142.26823540 142.26833700 142.26838451 142.26838451 142.26833700 142.26823540 142.26806542 142.26780268 142.26741285 142.26685794 142.26610483 142.26513059 142.26392278 142.26249129 142.26088145 142.25912909 142.25735637 142.25603153 142.25514280 142.25514280 142.25514280 142.25514280 142.25514280 142.25514280 142.25514280 142.25514280 142.25514280 142.25514280 142.25514280 142.25514280 142.25701654 142.25867104 142.26014118 142.26152746 142.26273176 142.26374619 142.26457654 142.26522483 142.26571068 142.26606584 142.26631925 142.26648517 142.26656750 142.26656750 142.26648517 142.26631925 142.26606584 142.26571068 142.26522483 142.26457654 142.26374619 142.26273176 142.26152746 142.26014118 142.25867104 142.25701654 142.25514280 142.25514280 142.25514280 142.25514280 142.25514280 142.25514280 142.25514280 142.25514280 142.25514280 142.25514280 142.25514280 142.25514280 142.25514280 142.25514280 142.25514280 142.25663151 142.25774176 142.25907751 142.26020855 142.26120252 142.26206158 142.26274836 142.26327457 142.26367820 142.26399234 142.26421392 142.26432771 142.26432771 142.26421392 142.26399234 142.26367820 142.26327457 142.26274836 142.26206158 142.26120252 142.26020855 142.25907751 142.25774176 142.25663151 142.25514280 142.25514280 142.25514280 142.25514280 142.25514280 142.25514280 142.25514280 142.25514280 142.25514280 142.25514280 142.25514280 142.25514280 142.25514280 142.25514280 142.25514280 142.25514280 142.25514280 142.25514280 142.25675611 142.25767911 142.25861637 142.25947357 142.26013020 142.26062005 142.26101511 142.26138205 142.26166637 142.26181388 142.26181388 142.26166637 142.26138205 142.26101511 142.26062005 142.26013020 142.25947357 142.25861637 142.25767911 142.25675611 142.25514280 142.25514280 142.25514280 142.25514280 142.25514280 142.25514280 142.25514280 142.25514280 142.25514280 142.25514280 142.25514280 142.25514280 142.25514280 142.25514280 142.25514280 142.25514280 142.25514280 142.25514280 142.25514280 142.25514280 142.25514280 142.25514280 142.25623335 142.25705034 142.25754784 142.25788149 142.25818265 142.25867013 142.25906274 142.25925122 142.25925122 142.25906274 142.25867013 142.25818265 142.25788149 142.25754784 142.25705034 142.25623335 142.25514280 142.25514280 142.25514280 142.25514280 142.25514280 142.25514280 142.25514280 142.25514280 142.25514280 142.25514280 142.25514280 142.25514280 142.25514280 142.25514280 142.25514280 142.25514280 142.25514280 142.25514280 142.25514280 142.25514280 142.25514280 142.25514280 142.25514280 142.25514280 142.25514280 142.25514280 142.25514280 142.25514280 142.25514280 142.25617908 142.25673405 142.25693621 142.25693621 142.25673405 142.25617908 142.25514280 142.25514280 142.25514280 142.25514280 142.25514280 142.25514280 142.25514280 142.25514280 142.25514280 142.25514280 142.25514280 142.25514280 142.25514280 142.25514280 142.25514280 142.25514280 142.25514280 142.25514280 142.25514280 142.25514280 142.25514280 142.25514280 142.25514280 142.25514280 142.25514280 142.25514280 142.25514280 142.25514280 142.25514280 142.25514280 142.25514280 142.25514280 142.25514280 142.25514280 142.25514280 142.25514280 142.25514280 142.25514280 142.25514280 142.25514280 142.25514280 142.25514280 142.25514280 142.25514280 142.25514280 142.25514280 142.25514280 142.25514280 142.25514280 142.25514280 142.25514280 142.25514280 142.25514280 142.25514280 142.25514280 142.25514280 142.25514280 142.25514280 142.25514280 142.25514280 142.25514280 142.25514280 142.25514280 142.25514280 142.25514280 142.25514280 142.25514280 142.25514280 142.25514280 142.25514280 142.25514280 142.25514280 142.25514280 142.25514280 142.25514280 142.25514280 142.25514280 142.25514280 142.25514280 142.25514280 142.25514280 142.25514280 142.25514280 142.25514280 142.25514280 142.25514280 142.25514280 142.25514280 142.25514280 142.25514280 142.25514280 142.25514280 142.25514280 142.25514280 142.25514280 142.25514280 142.25514280 142.25514280 142.25514280 142.25514280 142.25514280 142.25514280 142.25514280 142.25514280 142.25514280 142.25514280 142.25514280 142.25514280 142.25514280 142.25514280 142.25514280 142.25514280 142.25514280 142.25514280 142.25514280 142.25514280 142.25514280 142.25514280 142.25514280 142.25514280 142.25514280 142.25514280 142.25514280 142.25514280 142.25514280 142.25514280 142.25514280 142.25514280 142.25514280 142.25514280 142.25514280 142.25514280 142.25514280 142.25514280 142.25514280 142.25514280 142.25514280 142.25514280 142.25514280 142.25514280 142.25514280 142.25514280 142.25514280 142.25514280 142.25514280 142.25514280 142.25514280 142.25514280 142.25514280 142.25514280 142.25514280 142.25514280 142.25514280 142.25514280 142.25514280 142.25514280 142.25514280 142.25514280 142.25514280 142.25514280 142.25514280 142.25514280 142.25514280 142.25514280 142.25514280 142.25514280 142.25514280 142.25514280 142.25514280 142.25514280 142.25514280 142.25514280 142.25514280 142.25514280 142.25514280 142.25514280 142.25514280 142.25514280 142.25514280 142.25514280 142.25514280 142.25514280 142.25514280 142.25514280 142.25514280 142.25514280 142.25514280 142.25514280 142.25514280 142.25514280 142.25514280 142.25514280 142.25514280 142.25514280 142.25514280 142.25514280 142.25514280 142.25514280 142.25514280 142.25514280 142.25514280 142.25514280 142.25514280 142.25514280 142.25514280 142.25514280 142.25514280 142.25514280 142.25514280 142.25514280 142.25514280 142.25514280 142.25514280 142.25514280 142.25514280 142.25514280 142.25514280 142.25514280 142.25514280 142.25514280 142.25514280 142.25514280 142.25514280 142.25514280 142.25514280 142.25514280 142.25514280 142.25514280 142.25514280 142.25514280 142.25514280 142.25514280 142.25514280 142.25514280 142.25514280 142.25514280 142.25514280 142.25514280 142.25514280 142.25514280 142.25514280 142.25514280 142.25514280 142.25514280 142.25514280 142.25514280 142.25514280 142.25514280 142.25514280 142.25514280 142.25514280 142.25514280 142.25514280 142.25514280 142.25514280 142.25514280 142.25514280 142.25514280 142.25514280 142.25514280 142.25514280 142.25514280 142.25514280 142.25514280 142.25514280 142.25514280 142.25514280 142.25514280 142.25514280 142.25514280 142.25514280 142.25514280 142.25514280 142.25514280 142.25514280 142.25514280 142.25514280 142.25514280 142.25514280 142.25514280 142.25514280 142.25514280 142.25514280 142.25514280 142.25514280 142.25514280 142.25514280 142.25514280 142.25514280 142.25514280 142.25514280 142.25514280 142.25514280 142.25514280 142.25514280 142.25514280 142.25514280 142.25514280 142.25514280 142.25514280 142.25514280 142.25514280 142.25514280 142.25514280 142.25514280 142.25514280 142.25514280 142.25514280 142.25514280 142.25514280 142.25514280 142.25514280 142.25514280 142.25514280 142.25514280 142.25514280 142.25514280 142.25514280 142.25514280 142.25514280 142.25514280 142.25514280 142.25514280 142.25514280 142.25514280 142.25514280 142.25514280 142.25514280 142.25514280 142.25514280 142.25514280 142.25514280 142.25514280 142.25514280 142.25514280 142.25514280 142.25514280 